<?xml version="1.0" encoding="UTF-8"?>

<!-- generated on 2023-07-13 11:32:49 by Eclipse SUMO sumo Version 1.18.0
<configuration xmlns:xsi="http://www.w3.org/2001/XMLSchema-instance" xsi:noNamespaceSchemaLocation="http://sumo.dlr.de/xsd/sumoConfiguration.xsd">

    <input>
        <net-file value="/Users/amanzer/Desktop/memo/sumo-simulation/ixelles/ixelles.net.xml"/>
        <route-files value="/Users/amanzer/Desktop/memo/sumo-simulation/ixelles/ixelles.routes.xml"/>
        <additional-files value="/Users/amanzer/Desktop/memo/sumo-simulation/ixelles/ixelles.poly.xml"/>
    </input>

    <output>
        <tripinfo-output value="tripinfo.xml"/>
        <edgedata-output value="edgeData.xml"/>
    </output>

</configuration>
-->

<meandata xmlns:xsi="http://www.w3.org/2001/XMLSchema-instance" xsi:noNamespaceSchemaLocation="http://sumo.dlr.de/xsd/meandata_file.xsd">
    <interval begin="0.00" end="1126.00" id="DEFAULT_EDGEDATA">
        <edge id="-1001144919" sampledSeconds="3.10" traveltime="3.67" overlapTraveltime="4.20" density="0.19" laneDensity="0.19" occupancy="0.08" waitingTime="0.00" timeLoss="1.17" speed="4.63" speedRelative="0.56" departed="1" arrived="0" entered="0" left="1" laneChangedFrom="0" laneChangedTo="0"/>
        <edge id="-100612596#0" sampledSeconds="7.38" traveltime="1.14" overlapTraveltime="2.06" density="0.90" laneDensity="0.90" occupancy="0.28" waitingTime="0.00" timeLoss="1.04" speed="5.95" speedRelative="0.71" departed="1" arrived="0" entered="3" left="4" laneChangedFrom="0" laneChangedTo="0"/>
        <edge id="-100612596#1" sampledSeconds="3.87" traveltime="0.63" overlapTraveltime="1.29" density="0.73" laneDensity="0.73" occupancy="0.18" waitingTime="0.00" timeLoss="0.28" speed="7.52" speedRelative="0.90" departed="0" arrived="0" entered="3" left="3" laneChangedFrom="0" laneChangedTo="0"/>
        <edge id="-100612596#2" sampledSeconds="38.51" traveltime="12.16" overlapTraveltime="12.84" density="0.38" laneDensity="0.38" occupancy="0.18" waitingTime="0.00" timeLoss="3.14" speed="7.44" speedRelative="0.89" departed="0" arrived="0" entered="3" left="3" laneChangedFrom="0" laneChangedTo="0"/>
        <edge id="-100612596#3" sampledSeconds="29.22" traveltime="9.09" overlapTraveltime="9.74" density="0.38" laneDensity="0.38" occupancy="0.18" waitingTime="0.00" timeLoss="2.36" speed="7.45" speedRelative="0.89" departed="0" arrived="0" entered="3" left="3" laneChangedFrom="0" laneChangedTo="0"/>
        <edge id="-100612596#4" sampledSeconds="15.68" traveltime="4.57" overlapTraveltime="5.23" density="0.41" laneDensity="0.41" occupancy="0.18" waitingTime="0.00" timeLoss="1.31" speed="7.43" speedRelative="0.89" departed="0" arrived="0" entered="3" left="3" laneChangedFrom="0" laneChangedTo="0"/>
        <edge id="-100612596#5" sampledSeconds="3.15" traveltime="0.36" overlapTraveltime="1.05" density="1.04" laneDensity="1.04" occupancy="0.18" waitingTime="0.00" timeLoss="0.30" speed="7.34" speedRelative="0.88" departed="0" arrived="0" entered="3" left="3" laneChangedFrom="0" laneChangedTo="0"/>
        <edge id="-100612596#6" sampledSeconds="2.07" traveltime="0.03" overlapTraveltime="0.69" density="9.19" laneDensity="9.19" occupancy="0.18" waitingTime="0.00" timeLoss="0.15" speed="7.53" speedRelative="0.90" departed="0" arrived="0" entered="3" left="3" laneChangedFrom="0" laneChangedTo="0"/>
        <edge id="-100612596#7" sampledSeconds="12.95" traveltime="3.63" overlapTraveltime="4.32" density="0.44" laneDensity="0.44" occupancy="0.18" waitingTime="0.00" timeLoss="1.35" speed="7.26" speedRelative="0.87" departed="0" arrived="0" entered="3" left="3" laneChangedFrom="0" laneChangedTo="0"/>
        <edge id="-1020500179" sampledSeconds="48.49" traveltime="15.51" overlapTraveltime="16.16" density="0.37" laneDensity="0.37" occupancy="0.18" waitingTime="0.00" timeLoss="3.86" speed="7.56" speedRelative="0.91" departed="0" arrived="0" entered="3" left="3" laneChangedFrom="0" laneChangedTo="0"/>
        <edge id="-1020500384" sampledSeconds="23.15" traveltime="4.98" overlapTraveltime="5.79" density="0.52" laneDensity="0.52" occupancy="0.23" waitingTime="0.00" timeLoss="2.61" speed="7.66" speedRelative="0.92" departed="0" arrived="0" entered="4" left="4" laneChangedFrom="0" laneChangedTo="0"/>
        <edge id="-1020500385#0" sampledSeconds="21.14" traveltime="4.66" overlapTraveltime="5.29" density="0.49" laneDensity="0.49" occupancy="0.21" waitingTime="0.00" timeLoss="1.41" speed="8.27" speedRelative="0.99" departed="0" arrived="0" entered="4" left="4" laneChangedFrom="0" laneChangedTo="0"/>
        <edge id="-1020500385#1" sampledSeconds="2.57" traveltime="0.03" overlapTraveltime="0.64" density="11.42" laneDensity="11.42" occupancy="0.22" waitingTime="0.00" timeLoss="0.22" speed="8.09" speedRelative="0.97" departed="0" arrived="0" entered="4" left="4" laneChangedFrom="0" laneChangedTo="0"/>
        <edge id="-1020500385#2" sampledSeconds="33.31" traveltime="7.70" overlapTraveltime="8.33" density="0.47" laneDensity="0.47" occupancy="0.22" waitingTime="0.00" timeLoss="2.41" speed="8.22" speedRelative="0.99" departed="0" arrived="0" entered="4" left="4" laneChangedFrom="0" laneChangedTo="0"/>
        <edge id="-102795373" sampledSeconds="6.78" traveltime="6.11" overlapTraveltime="8.05" density="0.22" laneDensity="0.22" occupancy="0.09" waitingTime="0.00" timeLoss="2.35" speed="4.01" speedRelative="0.48" departed="1" arrived="0" entered="0" left="1" laneChangedFrom="0" laneChangedTo="0"/>
        <edge id="-1028388888" sampledSeconds="3.68" traveltime="0.03" overlapTraveltime="0.74" density="16.34" laneDensity="16.34" occupancy="0.31" waitingTime="0.00" timeLoss="0.63" speed="7.07" speedRelative="0.85" departed="0" arrived="0" entered="5" left="5" laneChangedFrom="0" laneChangedTo="0"/>
        <edge id="-1037986847" sampledSeconds="1.35" traveltime="0.03" overlapTraveltime="0.67" density="5.98" laneDensity="2.99" occupancy="0.06" waitingTime="0.00" timeLoss="0.22" speed="7.73" speedRelative="0.93" departed="0" arrived="0" entered="2" left="2" laneChangedFrom="0" laneChangedTo="0"/>
        <edge id="-1041085657#0" sampledSeconds="4.45" traveltime="0.81" overlapTraveltime="1.48" density="0.67" laneDensity="0.67" occupancy="0.18" waitingTime="0.00" timeLoss="0.43" speed="7.34" speedRelative="0.88" departed="0" arrived="0" entered="3" left="3" laneChangedFrom="0" laneChangedTo="0"/>
        <edge id="-1041085657#1" sampledSeconds="6.50" traveltime="1.47" overlapTraveltime="2.17" density="0.52" laneDensity="0.52" occupancy="0.18" waitingTime="0.00" timeLoss="0.55" speed="7.45" speedRelative="0.89" departed="0" arrived="0" entered="3" left="3" laneChangedFrom="0" laneChangedTo="0"/>
        <edge id="-104414427" sampledSeconds="14.61" traveltime="3.03" overlapTraveltime="3.65" density="0.55" laneDensity="0.55" occupancy="0.23" waitingTime="0.00" timeLoss="1.34" speed="7.86" speedRelative="0.94" departed="0" arrived="0" entered="4" left="4" laneChangedFrom="0" laneChangedTo="0"/>
        <edge id="-104414445#0" sampledSeconds="17.48" traveltime="3.74" overlapTraveltime="4.37" density="0.53" laneDensity="0.53" occupancy="0.22" waitingTime="0.00" timeLoss="1.60" speed="7.87" speedRelative="0.94" departed="0" arrived="0" entered="4" left="4" laneChangedFrom="0" laneChangedTo="0"/>
        <edge id="-105061387#0" sampledSeconds="0.99" traveltime="0.04" overlapTraveltime="0.99" density="4.38" laneDensity="4.38" occupancy="0.08" waitingTime="0.00" timeLoss="0.02" speed="5.28" speedRelative="0.63" departed="0" arrived="0" entered="1" left="1" laneChangedFrom="0" laneChangedTo="0"/>
        <edge id="-105061387#1" sampledSeconds="9.97" traveltime="9.81" overlapTraveltime="10.80" density="0.14" laneDensity="0.14" occupancy="0.07" waitingTime="0.00" timeLoss="2.25" speed="6.17" speedRelative="0.74" departed="1" arrived="0" entered="0" left="1" laneChangedFrom="0" laneChangedTo="0"/>
        <edge id="-105061387#2" sampledSeconds="9.99" traveltime="9.18" overlapTraveltime="9.99" density="0.14" laneDensity="0.14" occupancy="0.06" waitingTime="0.00" timeLoss="1.10" speed="6.89" speedRelative="0.83" departed="0" arrived="0" entered="1" left="1" laneChangedFrom="0" laneChangedTo="0"/>
        <edge id="-1056200664" sampledSeconds="6.75" traveltime="2.26" overlapTraveltime="3.38" density="0.39" laneDensity="0.39" occupancy="0.15" waitingTime="0.00" timeLoss="0.63" speed="5.98" speedRelative="0.72" departed="0" arrived="0" entered="2" left="2" laneChangedFrom="0" laneChangedTo="0"/>
        <edge id="-1056200665#2" sampledSeconds="5.52" traveltime="1.54" overlapTraveltime="2.76" density="0.73" laneDensity="0.73" occupancy="0.21" waitingTime="0.00" timeLoss="0.91" speed="4.25" speedRelative="0.76" departed="0" arrived="0" entered="2" left="2" laneChangedFrom="0" laneChangedTo="0"/>
        <edge id="-1057896580#1" sampledSeconds="1.41" traveltime="0.08" overlapTraveltime="1.41" density="6.26" laneDensity="6.26" occupancy="0.12" waitingTime="0.00" timeLoss="0.56" speed="3.69" speedRelative="0.44" departed="0" arrived="0" entered="1" left="1" laneChangedFrom="0" laneChangedTo="0"/>
        <edge id="-1064675850" sampledSeconds="0.78" traveltime="0.02" overlapTraveltime="0.78" density="6.94" laneDensity="6.94" occupancy="0.07" waitingTime="0.00" timeLoss="0.02" speed="6.52" speedRelative="0.78" departed="0" arrived="0" entered="1" left="1" laneChangedFrom="0" laneChangedTo="0"/>
        <edge id="-1064675851#0" sampledSeconds="2.22" traveltime="1.19" overlapTraveltime="2.22" density="0.56" laneDensity="0.56" occupancy="0.11" waitingTime="0.00" timeLoss="1.21" speed="3.83" speedRelative="0.46" departed="0" arrived="0" entered="1" left="1" laneChangedFrom="0" laneChangedTo="0"/>
        <edge id="-1064675851#1" sampledSeconds="1.59" overlapTraveltime="1.74" density="2.88" laneDensity="2.88" occupancy="0.14" waitingTime="0.00" timeLoss="1.00" speed="3.15" speedRelative="0.38" departed="1" arrived="0" entered="0" left="1" laneChangedFrom="0" laneChangedTo="0"/>
        <edge id="-1066438511#0" sampledSeconds="1.40" traveltime="0.73" overlapTraveltime="1.40" density="0.26" laneDensity="0.26" occupancy="0.06" waitingTime="0.00" timeLoss="0.32" speed="7.02" speedRelative="0.84" departed="0" arrived="0" entered="1" left="1" laneChangedFrom="0" laneChangedTo="0"/>
        <edge id="-1066438511#1" sampledSeconds="6.92" traveltime="6.20" overlapTraveltime="6.92" density="0.12" laneDensity="0.12" occupancy="0.05" waitingTime="0.00" timeLoss="0.61" speed="8.41" speedRelative="1.01" departed="0" arrived="0" entered="1" left="1" laneChangedFrom="0" laneChangedTo="0"/>
        <edge id="-1066478854#0" sampledSeconds="5.24" traveltime="4.65" overlapTraveltime="5.24" density="0.12" laneDensity="0.12" occupancy="0.05" waitingTime="0.00" timeLoss="0.43" speed="8.25" speedRelative="0.99" departed="0" arrived="0" entered="1" left="1" laneChangedFrom="0" laneChangedTo="0"/>
        <edge id="-1066478854#1" sampledSeconds="1.90" traveltime="0.97" overlapTraveltime="1.90" density="0.44" laneDensity="0.44" occupancy="0.09" waitingTime="0.00" timeLoss="0.91" speed="4.67" speedRelative="0.56" departed="0" arrived="0" entered="1" left="1" laneChangedFrom="0" laneChangedTo="0"/>
        <edge id="-1071065219" sampledSeconds="38.52" traveltime="18.47" overlapTraveltime="19.26" density="0.25" laneDensity="0.25" occupancy="0.12" waitingTime="0.00" timeLoss="3.51" speed="7.47" speedRelative="0.90" departed="0" arrived="0" entered="2" left="2" laneChangedFrom="0" laneChangedTo="0"/>
        <edge id="-1071065280" sampledSeconds="62.29" traveltime="29.47" overlapTraveltime="31.15" density="0.31" laneDensity="0.31" occupancy="0.15" waitingTime="0.00" timeLoss="7.39" speed="5.98" speedRelative="0.72" departed="0" arrived="0" entered="2" left="2" laneChangedFrom="0" laneChangedTo="0"/>
        <edge id="-1077818352" sampledSeconds="1.22" traveltime="0.50" overlapTraveltime="1.22" density="0.32" laneDensity="0.32" occupancy="0.06" waitingTime="0.00" timeLoss="0.18" speed="6.89" speedRelative="0.83" departed="0" arrived="0" entered="1" left="1" laneChangedFrom="0" laneChangedTo="0"/>
        <edge id="-1077819553" sampledSeconds="45.89" traveltime="5.90" overlapTraveltime="6.56" density="0.93" laneDensity="0.93" occupancy="0.42" waitingTime="0.00" timeLoss="5.62" speed="7.48" speedRelative="0.90" departed="0" arrived="0" entered="7" left="7" laneChangedFrom="0" laneChangedTo="0"/>
        <edge id="-1077825730" sampledSeconds="13.45" traveltime="1.30" overlapTraveltime="1.92" density="1.15" laneDensity="1.15" occupancy="0.39" waitingTime="0.00" timeLoss="0.84" speed="7.99" speedRelative="0.96" departed="0" arrived="0" entered="7" left="7" laneChangedFrom="0" laneChangedTo="0"/>
        <edge id="-1077835592#0" sampledSeconds="53.87" traveltime="7.05" overlapTraveltime="7.70" density="0.85" laneDensity="0.85" occupancy="0.39" waitingTime="0.00" timeLoss="3.69" speed="7.94" speedRelative="0.95" departed="0" arrived="0" entered="7" left="7" laneChangedFrom="0" laneChangedTo="0"/>
        <edge id="-1077835592#1" sampledSeconds="32.22" traveltime="3.98" overlapTraveltime="4.60" density="0.90" laneDensity="0.90" occupancy="0.39" waitingTime="0.00" timeLoss="2.13" speed="7.96" speedRelative="0.96" departed="0" arrived="0" entered="7" left="7" laneChangedFrom="0" laneChangedTo="0"/>
        <edge id="-1077835594#0" sampledSeconds="16.32" traveltime="1.67" overlapTraveltime="2.33" density="1.11" laneDensity="1.11" occupancy="0.40" waitingTime="0.00" timeLoss="1.20" speed="7.74" speedRelative="0.93" departed="0" arrived="0" entered="7" left="7" laneChangedFrom="0" laneChangedTo="0"/>
        <edge id="-1077835594#1" sampledSeconds="10.21" traveltime="0.64" overlapTraveltime="1.28" density="1.81" laneDensity="1.81" occupancy="0.45" waitingTime="0.00" timeLoss="0.74" speed="7.85" speedRelative="0.94" departed="0" arrived="1" entered="8" left="7" laneChangedFrom="0" laneChangedTo="0"/>
        <edge id="-1078796766#2" sampledSeconds="12.35" traveltime="11.75" overlapTraveltime="12.35" density="0.13" laneDensity="0.13" occupancy="0.06" waitingTime="0.00" timeLoss="1.70" speed="7.15" speedRelative="0.86" departed="0" arrived="1" entered="1" left="0" laneChangedFrom="0" laneChangedTo="0"/>
        <edge id="-1078802248#0" sampledSeconds="4.43" traveltime="3.76" overlapTraveltime="4.43" density="0.14" laneDensity="0.14" occupancy="0.06" waitingTime="0.00" timeLoss="0.30" speed="7.36" speedRelative="0.88" departed="0" arrived="0" entered="1" left="1" laneChangedFrom="0" laneChangedTo="0"/>
        <edge id="-1078802248#1" sampledSeconds="0.69" traveltime="0.03" overlapTraveltime="0.69" density="3.05" laneDensity="3.05" occupancy="0.06" waitingTime="0.00" timeLoss="0.03" speed="7.56" speedRelative="0.91" departed="0" arrived="0" entered="1" left="1" laneChangedFrom="0" laneChangedTo="0"/>
        <edge id="-1078802248#2" sampledSeconds="7.05" traveltime="3.10" overlapTraveltime="3.85" density="0.34" laneDensity="0.34" occupancy="0.14" waitingTime="0.00" timeLoss="1.36" speed="6.09" speedRelative="0.73" departed="0" arrived="1" entered="2" left="1" laneChangedFrom="0" laneChangedTo="0"/>
        <edge id="-1083809476#0" sampledSeconds="14.47" traveltime="0.67" overlapTraveltime="1.61" density="44.30" laneDensity="44.30" occupancy="0.99" waitingTime="4.00" timeLoss="11.30" speed="3.29" speedRelative="0.40" departed="0" arrived="0" entered="9" left="9" laneChangedFrom="0" laneChangedTo="0"/>
        <edge id="-1083809476#1" sampledSeconds="28.90" traveltime="1.45" overlapTraveltime="3.21" density="3.94" laneDensity="3.94" occupancy="1.33" waitingTime="4.00" timeLoss="19.34" speed="3.58" speedRelative="0.43" departed="0" arrived="0" entered="9" left="9" laneChangedFrom="0" laneChangedTo="0"/>
        <edge id="-1083809476#2" sampledSeconds="92.19" traveltime="9.19" overlapTraveltime="10.24" density="1.50" laneDensity="1.50" occupancy="0.69" waitingTime="8.00" timeLoss="25.78" speed="5.81" speedRelative="0.70" departed="0" arrived="0" entered="9" left="9" laneChangedFrom="0" laneChangedTo="0"/>
        <edge id="-1083809476#3" sampledSeconds="6.71" traveltime="0.03" overlapTraveltime="0.75" density="29.79" laneDensity="29.79" occupancy="0.57" waitingTime="0.00" timeLoss="0.89" speed="6.98" speedRelative="0.84" departed="0" arrived="0" entered="9" left="9" laneChangedFrom="0" laneChangedTo="0"/>
        <edge id="-1084662162" sampledSeconds="12.46" traveltime="11.79" overlapTraveltime="12.46" density="0.13" laneDensity="0.13" occupancy="0.06" waitingTime="0.00" timeLoss="1.80" speed="7.36" speedRelative="0.88" departed="0" arrived="0" entered="1" left="1" laneChangedFrom="0" laneChangedTo="0"/>
        <edge id="-1084662163#2" sampledSeconds="0.55" traveltime="0.31" overlapTraveltime="0.91" density="0.19" laneDensity="0.19" occupancy="0.04" waitingTime="0.00" timeLoss="0.02" speed="8.26" speedRelative="0.99" departed="0" arrived="1" entered="1" left="0" laneChangedFrom="0" laneChangedTo="0"/>
        <edge id="-1084662163#3" sampledSeconds="5.36" traveltime="4.79" overlapTraveltime="5.39" density="0.13" laneDensity="0.13" occupancy="0.06" waitingTime="0.00" timeLoss="0.52" speed="7.76" speedRelative="0.93" departed="0" arrived="0" entered="1" left="1" laneChangedFrom="0" laneChangedTo="0"/>
        <edge id="-1088286509#0" sampledSeconds="0.64" traveltime="0.04" overlapTraveltime="0.64" density="1.73" laneDensity="1.73" occupancy="0.05" waitingTime="0.00" timeLoss="0.08" speed="8.31" speedRelative="1.00" departed="0" arrived="0" entered="1" left="1" laneChangedFrom="0" laneChangedTo="0"/>
        <edge id="-1088286509#1" sampledSeconds="4.62" traveltime="3.92" overlapTraveltime="4.62" density="0.12" laneDensity="0.12" occupancy="0.05" waitingTime="0.00" timeLoss="0.64" speed="8.20" speedRelative="0.98" departed="0" arrived="0" entered="1" left="1" laneChangedFrom="0" laneChangedTo="0"/>
        <edge id="-1089069632" sampledSeconds="9.06" traveltime="0.18" overlapTraveltime="0.60" density="3.85" laneDensity="1.93" occupancy="0.28" waitingTime="0.00" timeLoss="1.23" speed="11.74" speedRelative="0.84" departed="0" arrived="0" entered="15" left="15" laneChangedFrom="1" laneChangedTo="1"/>
        <edge id="-1095324879" sampledSeconds="7.11" traveltime="6.41" overlapTraveltime="7.11" density="0.13" laneDensity="0.13" occupancy="0.06" waitingTime="0.00" timeLoss="0.68" speed="7.40" speedRelative="0.89" departed="0" arrived="0" entered="1" left="1" laneChangedFrom="0" laneChangedTo="0"/>
        <edge id="-1102306777#3" sampledSeconds="0.70" traveltime="0.68" overlapTraveltime="1.33" density="0.12" laneDensity="0.12" occupancy="0.03" waitingTime="0.00" timeLoss="0.12" speed="7.72" speedRelative="0.93" departed="0" arrived="1" entered="1" left="0" laneChangedFrom="0" laneChangedTo="0"/>
        <edge id="-1102306777#4" sampledSeconds="0.84" traveltime="0.04" overlapTraveltime="0.84" density="3.74" laneDensity="3.74" occupancy="0.07" waitingTime="0.00" timeLoss="0.28" speed="6.18" speedRelative="0.74" departed="0" arrived="0" entered="1" left="1" laneChangedFrom="0" laneChangedTo="0"/>
        <edge id="-1102370123" sampledSeconds="4.54" traveltime="3.87" overlapTraveltime="4.54" density="0.15" laneDensity="0.15" occupancy="0.06" waitingTime="0.00" timeLoss="0.59" speed="7.19" speedRelative="0.86" departed="0" arrived="0" entered="1" left="1" laneChangedFrom="0" laneChangedTo="0"/>
        <edge id="-1104034843" sampledSeconds="8.55" traveltime="7.82" overlapTraveltime="9.52" density="0.17" laneDensity="0.17" occupancy="0.08" waitingTime="0.00" timeLoss="2.74" speed="5.26" speedRelative="0.63" departed="1" arrived="0" entered="0" left="1" laneChangedFrom="0" laneChangedTo="0"/>
        <edge id="-1107425808#0" sampledSeconds="3.76" traveltime="0.03" overlapTraveltime="0.75" density="16.68" laneDensity="8.34" occupancy="0.16" waitingTime="0.00" timeLoss="0.84" speed="6.92" speedRelative="0.83" departed="0" arrived="0" entered="5" left="5" laneChangedFrom="0" laneChangedTo="0"/>
        <edge id="-1107425808#1" sampledSeconds="3.74" traveltime="0.03" overlapTraveltime="0.75" density="16.62" laneDensity="8.31" occupancy="0.16" waitingTime="0.00" timeLoss="0.80" speed="6.95" speedRelative="0.83" departed="0" arrived="0" entered="5" left="5" laneChangedFrom="0" laneChangedTo="0"/>
        <edge id="-1107838463" sampledSeconds="29.58" traveltime="8.92" overlapTraveltime="9.86" density="0.35" laneDensity="0.35" occupancy="0.16" waitingTime="0.00" timeLoss="2.36" speed="8.04" speedRelative="0.96" departed="0" arrived="0" entered="3" left="3" laneChangedFrom="0" laneChangedTo="0"/>
        <edge id="-1111565436#0" sampledSeconds="3.87" traveltime="0.07" overlapTraveltime="1.94" density="17.19" laneDensity="17.19" occupancy="0.33" waitingTime="0.00" timeLoss="1.54" speed="2.69" speedRelative="0.32" departed="0" arrived="0" entered="2" left="2" laneChangedFrom="0" laneChangedTo="0"/>
        <edge id="-1111565436#1" sampledSeconds="3.02" traveltime="0.04" overlapTraveltime="1.51" density="13.41" laneDensity="13.41" occupancy="0.26" waitingTime="0.00" timeLoss="0.85" speed="3.44" speedRelative="0.41" departed="0" arrived="0" entered="2" left="2" laneChangedFrom="0" laneChangedTo="0"/>
        <edge id="-1111565436#2" sampledSeconds="2.86" traveltime="0.04" overlapTraveltime="1.43" density="12.70" laneDensity="12.70" occupancy="0.24" waitingTime="0.00" timeLoss="0.82" speed="3.64" speedRelative="0.44" departed="0" arrived="0" entered="2" left="2" laneChangedFrom="0" laneChangedTo="0"/>
        <edge id="-1112887031#0" sampledSeconds="14.28" traveltime="5.10" overlapTraveltime="7.14" density="0.30" laneDensity="0.30" occupancy="0.12" waitingTime="0.00" timeLoss="4.59" speed="6.65" speedRelative="0.48" departed="0" arrived="0" entered="2" left="2" laneChangedFrom="0" laneChangedTo="0"/>
        <edge id="-1112887031#1" sampledSeconds="3.11" traveltime="1.26" overlapTraveltime="1.97" density="0.39" laneDensity="0.39" occupancy="0.14" waitingTime="0.00" timeLoss="1.65" speed="6.11" speedRelative="0.44" departed="1" arrived="0" entered="1" left="2" laneChangedFrom="0" laneChangedTo="0"/>
        <edge id="-1112887031#2" sampledSeconds="1.44" traveltime="1.07" overlapTraveltime="1.44" density="0.09" laneDensity="0.09" occupancy="0.03" waitingTime="0.00" timeLoss="0.03" speed="13.53" speedRelative="0.97" departed="0" arrived="0" entered="1" left="1" laneChangedFrom="0" laneChangedTo="0"/>
        <edge id="-1113564037#0" sampledSeconds="0.97" traveltime="0.04" overlapTraveltime="0.97" density="4.30" laneDensity="2.15" occupancy="0.04" waitingTime="0.00" timeLoss="0.09" speed="5.38" speedRelative="0.65" departed="0" arrived="0" entered="1" left="1" laneChangedFrom="0" laneChangedTo="0"/>
        <edge id="-1113564037#1" sampledSeconds="1.68" traveltime="0.03" overlapTraveltime="0.84" density="7.47" laneDensity="3.74" occupancy="0.07" waitingTime="0.00" timeLoss="0.16" speed="6.18" speedRelative="0.74" departed="0" arrived="0" entered="2" left="2" laneChangedFrom="0" laneChangedTo="0"/>
        <edge id="-1113647625" sampledSeconds="7.93" traveltime="7.23" overlapTraveltime="7.93" density="0.14" laneDensity="0.14" occupancy="0.06" waitingTime="0.00" timeLoss="0.74" speed="7.01" speedRelative="0.84" departed="0" arrived="0" entered="1" left="1" laneChangedFrom="0" laneChangedTo="0"/>
        <edge id="-111513754#0" sampledSeconds="16.10" traveltime="7.35" overlapTraveltime="8.05" density="0.26" laneDensity="0.26" occupancy="0.12" waitingTime="0.00" timeLoss="1.88" speed="7.45" speedRelative="0.89" departed="0" arrived="0" entered="2" left="2" laneChangedFrom="0" laneChangedTo="0"/>
        <edge id="-111513754#1" sampledSeconds="12.98" traveltime="5.85" overlapTraveltime="6.49" density="0.25" laneDensity="0.25" occupancy="0.11" waitingTime="0.00" timeLoss="1.02" speed="7.81" speedRelative="0.94" departed="0" arrived="0" entered="2" left="2" laneChangedFrom="0" laneChangedTo="0"/>
        <edge id="-111513754#2" sampledSeconds="34.69" traveltime="16.71" overlapTraveltime="17.35" density="0.24" laneDensity="0.24" occupancy="0.11" waitingTime="0.00" timeLoss="2.77" speed="7.80" speedRelative="0.94" departed="0" arrived="0" entered="2" left="2" laneChangedFrom="0" laneChangedTo="0"/>
        <edge id="-1119680146" sampledSeconds="59.69" traveltime="11.29" overlapTraveltime="11.94" density="0.60" laneDensity="0.60" occupancy="0.28" waitingTime="0.00" timeLoss="5.42" speed="7.81" speedRelative="0.94" departed="0" arrived="0" entered="5" left="5" laneChangedFrom="0" laneChangedTo="0"/>
        <edge id="-1119807807#0" sampledSeconds="2.12" traveltime="0.05" overlapTraveltime="0.71" density="4.60" laneDensity="4.60" occupancy="0.17" waitingTime="0.00" timeLoss="0.10" speed="7.64" speedRelative="0.92" departed="0" arrived="0" entered="3" left="3" laneChangedFrom="0" laneChangedTo="0"/>
        <edge id="-1119807807#1" sampledSeconds="5.81" traveltime="1.28" overlapTraveltime="1.94" density="0.55" laneDensity="0.55" occupancy="0.18" waitingTime="0.00" timeLoss="0.43" speed="7.43" speedRelative="0.89" departed="0" arrived="0" entered="3" left="3" laneChangedFrom="0" laneChangedTo="0"/>
        <edge id="-1119807807#2" sampledSeconds="36.71" traveltime="11.54" overlapTraveltime="12.24" density="0.38" laneDensity="0.38" occupancy="0.18" waitingTime="0.00" timeLoss="3.12" speed="7.34" speedRelative="0.88" departed="0" arrived="0" entered="3" left="3" laneChangedFrom="0" laneChangedTo="0"/>
        <edge id="-1119807807#3" sampledSeconds="46.99" traveltime="22.85" overlapTraveltime="23.49" density="0.24" laneDensity="0.24" occupancy="0.11" waitingTime="0.00" timeLoss="3.71" speed="7.77" speedRelative="0.93" departed="0" arrived="0" entered="2" left="2" laneChangedFrom="0" laneChangedTo="0"/>
        <edge id="-1128426907#0" sampledSeconds="35.19" traveltime="1.57" overlapTraveltime="2.20" density="2.54" laneDensity="2.54" occupancy="0.90" waitingTime="0.00" timeLoss="3.61" speed="7.86" speedRelative="0.94" departed="0" arrived="0" entered="16" left="16" laneChangedFrom="0" laneChangedTo="0"/>
        <edge id="-1128426907#1" sampledSeconds="16.53" traveltime="0.39" overlapTraveltime="1.03" density="4.80" laneDensity="4.80" occupancy="0.91" waitingTime="0.00" timeLoss="1.81" speed="7.80" speedRelative="0.94" departed="0" arrived="0" entered="16" left="16" laneChangedFrom="0" laneChangedTo="0"/>
        <edge id="-1128426908#0" sampledSeconds="11.38" traveltime="0.07" overlapTraveltime="0.71" density="17.74" laneDensity="17.74" occupancy="0.91" waitingTime="0.00" timeLoss="1.28" speed="7.83" speedRelative="0.94" departed="0" arrived="0" entered="16" left="16" laneChangedFrom="0" laneChangedTo="0"/>
        <edge id="-1128426908#1" sampledSeconds="270.80" traveltime="16.28" overlapTraveltime="16.92" density="1.90" laneDensity="1.90" occupancy="0.91" waitingTime="0.00" timeLoss="31.62" speed="7.79" speedRelative="0.94" departed="0" arrived="0" entered="16" left="16" laneChangedFrom="0" laneChangedTo="0"/>
        <edge id="-1128426908#2" sampledSeconds="39.32" traveltime="1.77" overlapTraveltime="2.46" density="3.30" laneDensity="3.30" occupancy="1.21" waitingTime="5.00" timeLoss="11.08" speed="6.34" speedRelative="0.76" departed="0" arrived="0" entered="16" left="16" laneChangedFrom="0" laneChangedTo="0"/>
        <edge id="-1128426908#3" sampledSeconds="13.81" traveltime="0.22" overlapTraveltime="0.86" density="6.89" laneDensity="6.89" occupancy="0.91" waitingTime="0.00" timeLoss="1.51" speed="7.86" speedRelative="0.94" departed="0" arrived="0" entered="16" left="16" laneChangedFrom="0" laneChangedTo="0"/>
        <edge id="-1128426908#4" sampledSeconds="11.05" traveltime="0.03" overlapTraveltime="0.69" density="49.08" laneDensity="49.08" occupancy="0.94" waitingTime="0.00" timeLoss="1.55" speed="7.53" speedRelative="0.90" departed="0" arrived="0" entered="16" left="16" laneChangedFrom="0" laneChangedTo="0"/>
        <edge id="-1128426908#5" sampledSeconds="26.89" traveltime="1.03" overlapTraveltime="1.68" density="2.93" laneDensity="2.93" occupancy="0.90" waitingTime="0.00" timeLoss="2.85" speed="7.83" speedRelative="0.94" departed="0" arrived="0" entered="16" left="16" laneChangedFrom="0" laneChangedTo="0"/>
        <edge id="-1128426908#6" sampledSeconds="230.38" traveltime="13.77" overlapTraveltime="14.40" density="1.89" laneDensity="1.89" occupancy="0.91" waitingTime="0.00" timeLoss="23.83" speed="7.85" speedRelative="0.94" departed="0" arrived="0" entered="16" left="16" laneChangedFrom="0" laneChangedTo="0"/>
        <edge id="-1128426908#7" sampledSeconds="13.53" traveltime="0.21" overlapTraveltime="0.85" density="7.11" laneDensity="7.11" occupancy="0.90" waitingTime="0.00" timeLoss="1.31" speed="7.91" speedRelative="0.95" departed="0" arrived="0" entered="16" left="16" laneChangedFrom="0" laneChangedTo="0"/>
        <edge id="-1128426908#8" sampledSeconds="10.53" traveltime="0.03" overlapTraveltime="0.66" density="37.40" laneDensity="37.40" occupancy="0.89" waitingTime="0.00" timeLoss="0.94" speed="7.98" speedRelative="0.96" departed="0" arrived="0" entered="16" left="16" laneChangedFrom="0" laneChangedTo="0"/>
        <edge id="-1128426908#9" sampledSeconds="18.19" traveltime="0.44" overlapTraveltime="1.09" density="5.08" laneDensity="5.08" occupancy="0.99" waitingTime="0.00" timeLoss="2.54" speed="7.51" speedRelative="0.90" departed="0" arrived="1" entered="17" left="16" laneChangedFrom="0" laneChangedTo="0"/>
        <edge id="-1134398532" sampledSeconds="7.72" traveltime="6.54" overlapTraveltime="7.72" density="0.21" laneDensity="0.21" occupancy="0.09" waitingTime="0.00" timeLoss="0.58" speed="4.97" speedRelative="0.89" departed="0" arrived="0" entered="1" left="1" laneChangedFrom="0" laneChangedTo="0"/>