<?xml version="1.0" encoding="UTF-8"?>

<!-- generated on 2023-07-14 01:31:23 by Eclipse SUMO sumo Version 1.18.0
<configuration xmlns:xsi="http://www.w3.org/2001/XMLSchema-instance" xsi:noNamespaceSchemaLocation="http://sumo.dlr.de/xsd/sumoConfiguration.xsd">

    <input>
        <net-file value="/Users/amanzer/Desktop/memo/sumo-simulation/ixelles/ixelles.net.xml"/>
        <route-files value="/Users/amanzer/Desktop/memo/sumo-simulation/ixelles/ixelles.routes.xml"/>
        <additional-files value="rerouter.add.xml"/>
    </input>

    <output>
        <tripinfo-output value="tripinfo2.xml"/>
        <edgedata-output value="edgeData2.xml"/>
    </output>

    <processing>
        <ignore-route-errors value="true"/>
    </processing>

</configuration>
-->

<meandata xmlns:xsi="http://www.w3.org/2001/XMLSchema-instance" xsi:noNamespaceSchemaLocation="http://sumo.dlr.de/xsd/meandata_file.xsd">
    <interval begin="0.00" end="1210.00" id="DEFAULT_EDGEDATA">
        <edge id="-1001144919" sampledSeconds="3.29" traveltime="3.91" overlapTraveltime="4.46" density="0.19" laneDensity="0.19" occupancy="0.08" waitingTime="0.00" timeLoss="1.69" speed="4.36" speedRelative="0.52" departed="1" arrived="0" entered="0" left="1" laneChangedFrom="0" laneChangedTo="0"/>
        <edge id="-100612596#0" sampledSeconds="8.96" traveltime="1.12" overlapTraveltime="1.95" density="1.02" laneDensity="1.02" occupancy="0.31" waitingTime="0.00" timeLoss="1.19" speed="6.27" speedRelative="0.75" departed="1" arrived="0" entered="4" left="5" laneChangedFrom="0" laneChangedTo="0"/>
        <edge id="-100612596#1" sampledSeconds="5.92" traveltime="0.78" overlapTraveltime="1.48" density="1.04" laneDensity="1.04" occupancy="0.24" waitingTime="0.00" timeLoss="1.18" speed="6.56" speedRelative="0.79" departed="0" arrived="0" entered="4" left="4" laneChangedFrom="0" laneChangedTo="0"/>
        <edge id="-100612596#2" sampledSeconds="56.06" traveltime="13.16" overlapTraveltime="14.01" density="0.51" laneDensity="0.51" occupancy="0.24" waitingTime="2.00" timeLoss="9.35" speed="6.82" speedRelative="0.82" departed="0" arrived="0" entered="4" left="4" laneChangedFrom="0" laneChangedTo="0"/>
        <edge id="-100612596#3" sampledSeconds="38.78" traveltime="9.03" overlapTraveltime="9.70" density="0.47" laneDensity="0.47" occupancy="0.22" waitingTime="0.00" timeLoss="3.31" speed="7.48" speedRelative="0.90" departed="0" arrived="0" entered="4" left="4" laneChangedFrom="0" laneChangedTo="0"/>
        <edge id="-100612596#4" sampledSeconds="20.51" traveltime="4.44" overlapTraveltime="5.13" density="0.50" laneDensity="0.50" occupancy="0.22" waitingTime="0.00" timeLoss="1.54" speed="7.57" speedRelative="0.91" departed="0" arrived="0" entered="4" left="4" laneChangedFrom="0" laneChangedTo="0"/>
        <edge id="-100612596#5" sampledSeconds="4.05" traveltime="0.35" overlapTraveltime="1.01" density="1.24" laneDensity="1.24" occupancy="0.22" waitingTime="0.00" timeLoss="0.29" speed="7.61" speedRelative="0.91" departed="0" arrived="0" entered="4" left="4" laneChangedFrom="0" laneChangedTo="0"/>
        <edge id="-100612596#6" sampledSeconds="2.71" traveltime="0.03" overlapTraveltime="0.68" density="11.18" laneDensity="11.18" occupancy="0.21" waitingTime="0.00" timeLoss="0.16" speed="7.69" speedRelative="0.92" departed="0" arrived="0" entered="4" left="4" laneChangedFrom="0" laneChangedTo="0"/>
        <edge id="-100612596#7" sampledSeconds="12.45" traveltime="3.49" overlapTraveltime="4.15" density="0.39" laneDensity="0.39" occupancy="0.16" waitingTime="0.00" timeLoss="1.01" speed="7.55" speedRelative="0.91" departed="0" arrived="0" entered="3" left="3" laneChangedFrom="0" laneChangedTo="0"/>
        <edge id="-1020500179" sampledSeconds="64.05" traveltime="15.36" overlapTraveltime="16.01" density="0.45" laneDensity="0.45" occupancy="0.22" waitingTime="0.00" timeLoss="5.25" speed="7.63" speedRelative="0.92" departed="0" arrived="0" entered="4" left="4" laneChangedFrom="0" laneChangedTo="0"/>
        <edge id="-1020500384" sampledSeconds="18.96" traveltime="5.42" overlapTraveltime="6.32" density="0.40" laneDensity="0.40" occupancy="0.17" waitingTime="0.00" timeLoss="1.97" speed="7.01" speedRelative="0.84" departed="0" arrived="0" entered="3" left="3" laneChangedFrom="0" laneChangedTo="0"/>
        <edge id="-1020500385#0" sampledSeconds="17.50" traveltime="5.14" overlapTraveltime="5.83" density="0.37" laneDensity="0.37" occupancy="0.16" waitingTime="0.00" timeLoss="1.31" speed="7.49" speedRelative="0.90" departed="0" arrived="0" entered="3" left="3" laneChangedFrom="0" laneChangedTo="0"/>
        <edge id="-1020500385#1" sampledSeconds="2.04" traveltime="0.03" overlapTraveltime="0.68" density="8.43" laneDensity="8.43" occupancy="0.16" waitingTime="0.00" timeLoss="0.11" speed="7.65" speedRelative="0.92" departed="0" arrived="0" entered="3" left="3" laneChangedFrom="0" laneChangedTo="0"/>
        <edge id="-1020500385#2" sampledSeconds="28.09" traveltime="8.71" overlapTraveltime="9.36" density="0.37" laneDensity="0.37" occupancy="0.17" waitingTime="0.00" timeLoss="2.73" speed="7.31" speedRelative="0.88" departed="0" arrived="0" entered="3" left="3" laneChangedFrom="0" laneChangedTo="0"/>
        <edge id="-102795373" sampledSeconds="6.03" traveltime="5.82" overlapTraveltime="7.16" density="0.18" laneDensity="0.18" occupancy="0.08" waitingTime="0.00" timeLoss="2.77" speed="4.51" speedRelative="0.54" departed="1" arrived="0" entered="0" left="1" laneChangedFrom="0" laneChangedTo="0"/>
        <edge id="-1028388888" sampledSeconds="3.82" traveltime="0.03" overlapTraveltime="0.76" density="15.77" laneDensity="15.77" occupancy="0.30" waitingTime="0.00" timeLoss="0.78" speed="6.81" speedRelative="0.82" departed="0" arrived="0" entered="5" left="5" laneChangedFrom="0" laneChangedTo="0"/>
        <edge id="-1037986847" sampledSeconds="7.07" traveltime="5.10" overlapTraveltime="7.07" density="29.21" laneDensity="14.60" occupancy="0.17" waitingTime="5.00" timeLoss="6.53" speed="0.74" speedRelative="0.09" departed="0" arrived="0" entered="1" left="1" laneChangedFrom="0" laneChangedTo="0"/>
        <edge id="-1041085657#0" sampledSeconds="5.76" traveltime="0.76" overlapTraveltime="1.44" density="0.81" laneDensity="0.81" occupancy="0.22" waitingTime="0.00" timeLoss="0.36" speed="7.56" speedRelative="0.91" departed="0" arrived="0" entered="4" left="4" laneChangedFrom="0" laneChangedTo="0"/>
        <edge id="-1041085657#1" sampledSeconds="8.89" traveltime="1.55" overlapTraveltime="2.22" density="0.66" laneDensity="0.66" occupancy="0.23" waitingTime="0.00" timeLoss="0.88" speed="7.26" speedRelative="0.87" departed="0" arrived="0" entered="4" left="4" laneChangedFrom="0" laneChangedTo="0"/>
        <edge id="-104414427" sampledSeconds="19.11" traveltime="3.15" overlapTraveltime="3.82" density="0.67" laneDensity="0.67" occupancy="0.27" waitingTime="0.00" timeLoss="1.33" speed="7.52" speedRelative="0.90" departed="0" arrived="0" entered="5" left="5" laneChangedFrom="0" laneChangedTo="0"/>
        <edge id="-104414445#0" sampledSeconds="23.66" traveltime="4.04" overlapTraveltime="4.73" density="0.67" laneDensity="0.67" occupancy="0.28" waitingTime="0.00" timeLoss="2.38" speed="7.27" speedRelative="0.87" departed="0" arrived="0" entered="5" left="5" laneChangedFrom="0" laneChangedTo="0"/>
        <edge id="-105061387#0" sampledSeconds="1.15" traveltime="0.05" overlapTraveltime="1.15" density="4.76" laneDensity="4.76" occupancy="0.09" waitingTime="0.00" timeLoss="0.30" speed="4.52" speedRelative="0.54" departed="0" arrived="0" entered="1" left="1" laneChangedFrom="0" laneChangedTo="0"/>
        <edge id="-105061387#1" sampledSeconds="10.16" traveltime="10.28" overlapTraveltime="11.00" density="0.14" laneDensity="0.14" occupancy="0.07" waitingTime="0.00" timeLoss="2.40" speed="6.06" speedRelative="0.73" departed="1" arrived="0" entered="0" left="1" laneChangedFrom="0" laneChangedTo="0"/>
        <edge id="-1056200664" sampledSeconds="6.36" traveltime="2.23" overlapTraveltime="3.18" density="0.35" laneDensity="0.35" occupancy="0.13" waitingTime="0.00" timeLoss="0.98" speed="6.35" speedRelative="0.76" departed="0" arrived="0" entered="2" left="2" laneChangedFrom="0" laneChangedTo="0"/>
        <edge id="-1056200665#1" sampledSeconds="1.04" traveltime="0.04" overlapTraveltime="1.04" density="4.29" laneDensity="4.29" occupancy="0.08" waitingTime="0.00" timeLoss="0.13" speed="5.01" speedRelative="0.90" departed="0" arrived="0" entered="1" left="1" laneChangedFrom="0" laneChangedTo="0"/>
        <edge id="-1056200665#2" sampledSeconds="4.71" traveltime="1.32" overlapTraveltime="2.36" density="0.58" laneDensity="0.58" occupancy="0.17" waitingTime="0.00" timeLoss="0.75" speed="4.98" speedRelative="0.90" departed="0" arrived="0" entered="2" left="2" laneChangedFrom="0" laneChangedTo="0"/>
        <edge id="-1057896580#1" sampledSeconds="0.61" traveltime="0.02" overlapTraveltime="0.61" density="2.51" laneDensity="2.51" occupancy="0.05" waitingTime="0.00" timeLoss="0.06" speed="8.55" speedRelative="1.03" departed="0" arrived="0" entered="1" left="1" laneChangedFrom="0" laneChangedTo="0"/>
        <edge id="-1064675850" sampledSeconds="0.82" traveltime="0.02" overlapTraveltime="0.82" density="6.75" laneDensity="6.75" occupancy="0.07" waitingTime="0.00" timeLoss="0.18" speed="6.25" speedRelative="0.75" departed="0" arrived="0" entered="1" left="1" laneChangedFrom="0" laneChangedTo="0"/>
        <edge id="-1064675851#0" sampledSeconds="2.61" traveltime="1.56" overlapTraveltime="2.61" density="0.62" laneDensity="0.62" occupancy="0.11" waitingTime="0.00" timeLoss="1.70" speed="3.26" speedRelative="0.39" departed="0" arrived="0" entered="1" left="1" laneChangedFrom="0" laneChangedTo="0"/>
        <edge id="-1064675851#1" sampledSeconds="2.09" overlapTraveltime="2.29" density="3.52" laneDensity="3.52" occupancy="0.17" waitingTime="0.00" timeLoss="1.55" speed="2.39" speedRelative="0.29" departed="1" arrived="0" entered="0" left="1" laneChangedFrom="0" laneChangedTo="0"/>
        <edge id="-1066438511#0" sampledSeconds="2.02" traveltime="1.14" overlapTraveltime="2.02" density="0.34" laneDensity="0.34" occupancy="0.08" waitingTime="0.00" timeLoss="0.56" speed="4.88" speedRelative="0.59" departed="0" arrived="0" entered="1" left="1" laneChangedFrom="0" laneChangedTo="0"/>
        <edge id="-1066438511#1" sampledSeconds="9.29" traveltime="8.43" overlapTraveltime="9.29" density="0.14" laneDensity="0.14" occupancy="0.07" waitingTime="0.00" timeLoss="0.80" speed="6.26" speedRelative="0.75" departed="0" arrived="0" entered="1" left="1" laneChangedFrom="0" laneChangedTo="0"/>
        <edge id="-1066478854#0" sampledSeconds="5.44" traveltime="4.81" overlapTraveltime="5.44" density="0.12" laneDensity="0.12" occupancy="0.05" waitingTime="0.00" timeLoss="0.63" speed="7.95" speedRelative="0.95" departed="0" arrived="0" entered="1" left="1" laneChangedFrom="0" laneChangedTo="0"/>
        <edge id="-1066478854#1" sampledSeconds="1.89" traveltime="1.00" overlapTraveltime="1.89" density="0.41" laneDensity="0.41" occupancy="0.09" waitingTime="0.00" timeLoss="0.91" speed="4.68" speedRelative="0.56" departed="0" arrived="0" entered="1" left="1" laneChangedFrom="0" laneChangedTo="0"/>
        <edge id="-1071065219" sampledSeconds="17.91" traveltime="17.13" overlapTraveltime="17.91" density="0.11" laneDensity="0.11" occupancy="0.05" waitingTime="0.00" timeLoss="1.53" speed="8.04" speedRelative="0.96" departed="0" arrived="0" entered="1" left="1" laneChangedFrom="0" laneChangedTo="0"/>
        <edge id="-1071065280" sampledSeconds="54.91" traveltime="26.08" overlapTraveltime="27.45" density="0.25" laneDensity="0.25" occupancy="0.12" waitingTime="0.00" timeLoss="5.22" speed="6.78" speedRelative="0.81" departed="0" arrived="0" entered="2" left="2" laneChangedFrom="0" laneChangedTo="0"/>
        <edge id="-1077818352" sampledSeconds="1.31" traveltime="0.57" overlapTraveltime="1.31" density="0.32" laneDensity="0.32" occupancy="0.06" waitingTime="0.00" timeLoss="0.27" speed="6.43" speedRelative="0.77" departed="0" arrived="0" entered="1" left="1" laneChangedFrom="0" laneChangedTo="0"/>
        <edge id="-1077819553" sampledSeconds="45.96" traveltime="5.89" overlapTraveltime="6.57" density="0.86" laneDensity="0.86" occupancy="0.39" waitingTime="0.00" timeLoss="4.86" speed="7.47" speedRelative="0.90" departed="0" arrived="0" entered="7" left="7" laneChangedFrom="0" laneChangedTo="0"/>
        <edge id="-1077825730" sampledSeconds="14.07" traveltime="1.37" overlapTraveltime="2.01" density="1.12" laneDensity="1.12" occupancy="0.38" waitingTime="0.00" timeLoss="1.21" speed="7.64" speedRelative="0.92" departed="0" arrived="0" entered="7" left="7" laneChangedFrom="0" laneChangedTo="0"/>
        <edge id="-1077835592#0" sampledSeconds="56.04" traveltime="7.35" overlapTraveltime="8.01" density="0.83" laneDensity="0.83" occupancy="0.38" waitingTime="0.00" timeLoss="4.82" speed="7.63" speedRelative="0.92" departed="0" arrived="0" entered="7" left="7" laneChangedFrom="0" laneChangedTo="0"/>
        <edge id="-1077835592#1" sampledSeconds="32.85" traveltime="4.05" overlapTraveltime="4.69" density="0.86" laneDensity="0.86" occupancy="0.37" waitingTime="0.00" timeLoss="2.13" speed="7.81" speedRelative="0.94" departed="0" arrived="0" entered="7" left="7" laneChangedFrom="0" laneChangedTo="0"/>
        <edge id="-1077835594#0" sampledSeconds="16.51" traveltime="1.70" overlapTraveltime="2.36" density="1.05" laneDensity="1.05" occupancy="0.38" waitingTime="0.00" timeLoss="1.26" speed="7.65" speedRelative="0.92" departed="0" arrived="0" entered="7" left="7" laneChangedFrom="0" laneChangedTo="0"/>
        <edge id="-1077835594#1" sampledSeconds="10.25" traveltime="0.66" overlapTraveltime="1.30" density="1.69" laneDensity="1.69" occupancy="0.43" waitingTime="0.00" timeLoss="0.77" speed="7.69" speedRelative="0.92" departed="0" arrived="1" entered="8" left="7" laneChangedFrom="0" laneChangedTo="0"/>
        <edge id="-1078796766#2" sampledSeconds="12.16" traveltime="11.45" overlapTraveltime="12.16" density="0.12" laneDensity="0.12" occupancy="0.06" waitingTime="0.00" timeLoss="1.51" speed="7.26" speedRelative="0.87" departed="0" arrived="1" entered="1" left="0" laneChangedFrom="0" laneChangedTo="0"/>
        <edge id="-1078802248#0" sampledSeconds="3.54" traveltime="2.99" overlapTraveltime="3.54" density="0.11" laneDensity="0.11" occupancy="0.04" waitingTime="0.00" timeLoss="0.28" speed="9.23" speedRelative="1.11" departed="0" arrived="0" entered="1" left="1" laneChangedFrom="0" laneChangedTo="0"/>
        <edge id="-1078802248#1" sampledSeconds="0.54" traveltime="0.02" overlapTraveltime="0.54" density="2.25" laneDensity="2.25" occupancy="0.04" waitingTime="0.00" timeLoss="0.02" speed="9.57" speedRelative="1.15" departed="0" arrived="0" entered="1" left="1" laneChangedFrom="0" laneChangedTo="0"/>
        <edge id="-1078802248#2" sampledSeconds="6.03" traveltime="2.76" overlapTraveltime="3.37" density="0.27" laneDensity="0.27" occupancy="0.11" waitingTime="0.00" timeLoss="1.10" speed="6.95" speedRelative="0.83" departed="0" arrived="1" entered="2" left="1" laneChangedFrom="0" laneChangedTo="0"/>
        <edge id="-1079611695#0" sampledSeconds="2.82" traveltime="2.28" overlapTraveltime="2.82" density="0.12" laneDensity="0.12" occupancy="0.05" waitingTime="0.00" timeLoss="0.22" speed="8.70" speedRelative="1.04" departed="0" arrived="0" entered="1" left="1" laneChangedFrom="0" laneChangedTo="0"/>
        <edge id="-1079611695#1" sampledSeconds="0.80" traveltime="0.10" overlapTraveltime="0.80" density="1.02" laneDensity="1.02" occupancy="0.06" waitingTime="0.00" timeLoss="0.20" speed="7.07" speedRelative="0.85" departed="0" arrived="0" entered="1" left="1" laneChangedFrom="0" laneChangedTo="0"/>
        <edge id="-1079611695#2" sampledSeconds="0.77" traveltime="0.03" overlapTraveltime="0.77" density="3.17" laneDensity="3.17" occupancy="0.06" waitingTime="0.00" timeLoss="0.21" speed="6.78" speedRelative="0.81" departed="0" arrived="0" entered="1" left="1" laneChangedFrom="0" laneChangedTo="0"/>
        <edge id="-1080979953#0" sampledSeconds="1.40" traveltime="0.66" overlapTraveltime="1.40" density="0.27" laneDensity="0.27" occupancy="0.06" waitingTime="0.00" timeLoss="0.24" speed="6.66" speedRelative="0.80" departed="0" arrived="0" entered="1" left="1" laneChangedFrom="0" laneChangedTo="0"/>
        <edge id="-1080979953#1" sampledSeconds="4.04" traveltime="3.42" overlapTraveltime="4.04" density="0.11" laneDensity="0.11" occupancy="0.05" waitingTime="0.00" timeLoss="0.15" speed="8.93" speedRelative="1.07" departed="0" arrived="0" entered="1" left="1" laneChangedFrom="0" laneChangedTo="0"/>
        <edge id="-1080979953#2" sampledSeconds="2.79" traveltime="2.24" overlapTraveltime="2.79" density="0.12" laneDensity="0.12" occupancy="0.05" waitingTime="0.00" timeLoss="0.18" speed="8.81" speedRelative="1.06" departed="0" arrived="0" entered="1" left="1" laneChangedFrom="0" laneChangedTo="0"/>
        <edge id="-1080979953#3" sampledSeconds="4.41" traveltime="3.86" overlapTraveltime="4.41" density="0.11" laneDensity="0.11" occupancy="0.05" waitingTime="0.00" timeLoss="0.45" speed="8.46" speedRelative="1.02" departed="0" arrived="0" entered="1" left="1" laneChangedFrom="0" laneChangedTo="0"/>
        <edge id="-1080979953#4" sampledSeconds="0.80" traveltime="0.04" overlapTraveltime="0.80" density="3.29" laneDensity="3.29" occupancy="0.06" waitingTime="0.00" timeLoss="0.24" speed="6.53" speedRelative="0.78" departed="0" arrived="0" entered="1" left="1" laneChangedFrom="0" laneChangedTo="0"/>
        <edge id="-1083809476#0" sampledSeconds="8.83" traveltime="0.05" overlapTraveltime="0.88" density="25.16" laneDensity="25.16" occupancy="0.69" waitingTime="0.00" timeLoss="5.32" speed="5.99" speedRelative="0.72" departed="0" arrived="0" entered="10" left="10" laneChangedFrom="0" laneChangedTo="0"/>
        <edge id="-1083809476#1" sampledSeconds="22.57" traveltime="1.40" overlapTraveltime="2.26" density="2.87" laneDensity="2.87" occupancy="0.84" waitingTime="0.00" timeLoss="11.59" speed="5.10" speedRelative="0.61" departed="0" arrived="0" entered="10" left="10" laneChangedFrom="0" laneChangedTo="0"/>
        <edge id="-1083809476#2" sampledSeconds="98.59" traveltime="8.80" overlapTraveltime="9.86" density="1.50" laneDensity="1.50" occupancy="0.68" waitingTime="8.00" timeLoss="23.96" speed="6.03" speedRelative="0.72" departed="0" arrived="0" entered="10" left="10" laneChangedFrom="0" laneChangedTo="0"/>
        <edge id="-1083809476#3" sampledSeconds="7.69" traveltime="0.03" overlapTraveltime="0.77" density="31.77" laneDensity="31.77" occupancy="0.61" waitingTime="0.00" timeLoss="1.15" speed="6.76" speedRelative="0.81" departed="0" arrived="0" entered="10" left="10" laneChangedFrom="0" laneChangedTo="0"/>
        <edge id="-1084662162" sampledSeconds="11.15" traveltime="10.57" overlapTraveltime="11.15" density="0.11" laneDensity="0.11" occupancy="0.05" waitingTime="0.00" timeLoss="1.61" speed="8.22" speedRelative="0.99" departed="0" arrived="0" entered="1" left="1" laneChangedFrom="0" laneChangedTo="0"/>
        <edge id="-1084662163#2" sampledSeconds="0.37" traveltime="0.27" overlapTraveltime="0.81" density="0.12" laneDensity="0.12" occupancy="0.02" waitingTime="0.00" timeLoss="0.01" speed="9.31" speedRelative="1.12" departed="0" arrived="1" entered="1" left="0" laneChangedFrom="0" laneChangedTo="0"/>
        <edge id="-1084662163#3" sampledSeconds="4.51" traveltime="4.12" overlapTraveltime="4.67" density="0.10" laneDensity="0.10" occupancy="0.05" waitingTime="0.00" timeLoss="0.30" speed="8.97" speedRelative="1.08" departed="0" arrived="0" entered="1" left="1" laneChangedFrom="0" laneChangedTo="0"/>
        <edge id="-1085974779#0" sampledSeconds="1.77" traveltime="0.07" overlapTraveltime="1.77" density="7.33" laneDensity="7.33" occupancy="0.14" waitingTime="0.00" timeLoss="0.83" speed="2.93" speedRelative="0.35" departed="0" arrived="0" entered="1" left="1" laneChangedFrom="0" laneChangedTo="0"/>
        <edge id="-1085974779#1" sampledSeconds="12.98" traveltime="11.76" overlapTraveltime="12.98" density="0.17" laneDensity="0.17" occupancy="0.08" waitingTime="0.00" timeLoss="1.68" speed="5.28" speedRelative="0.63" departed="0" arrived="0" entered="1" left="1" laneChangedFrom="0" laneChangedTo="0"/>
        <edge id="-1085974779#2" sampledSeconds="2.19" traveltime="0.76" overlapTraveltime="2.19" density="1.39" laneDensity="1.39" occupancy="0.14" waitingTime="0.00" timeLoss="1.16" speed="2.87" speedRelative="0.34" departed="0" arrived="0" entered="1" left="1" laneChangedFrom="0" laneChangedTo="0"/>
        <edge id="-1088286509#0" sampledSeconds="0.78" traveltime="0.05" overlapTraveltime="0.78" density="1.96" laneDensity="1.96" occupancy="0.06" waitingTime="0.00" timeLoss="0.07" speed="6.81" speedRelative="0.82" departed="0" arrived="0" entered="1" left="1" laneChangedFrom="0" laneChangedTo="0"/>
        <edge id="-1088286509#1" sampledSeconds="5.60" traveltime="4.90" overlapTraveltime="5.60" density="0.14" laneDensity="0.14" occupancy="0.06" waitingTime="0.00" timeLoss="0.51" speed="6.77" speedRelative="0.81" departed="0" arrived="0" entered="1" left="1" laneChangedFrom="0" laneChangedTo="0"/>
        <edge id="-1089069632" sampledSeconds="7.99" traveltime="0.19" overlapTraveltime="0.61" density="3.16" laneDensity="1.58" occupancy="0.23" waitingTime="0.00" timeLoss="1.20" speed="11.53" speedRelative="0.83" departed="0" arrived="0" entered="13" left="13" laneChangedFrom="0" laneChangedTo="0"/>
        <edge id="-1095324879" sampledSeconds="7.14" traveltime="6.45" overlapTraveltime="7.14" density="0.12" laneDensity="0.12" occupancy="0.06" waitingTime="0.00" timeLoss="0.71" speed="7.37" speedRelative="0.88" departed="0" arrived="0" entered="1" left="1" laneChangedFrom="0" laneChangedTo="0"/>
        <edge id="-1102306777#3" sampledSeconds="1.40" traveltime="0.78" overlapTraveltime="1.46" density="0.22" laneDensity="0.22" occupancy="0.06" waitingTime="0.00" timeLoss="0.17" speed="7.00" speedRelative="0.84" departed="0" arrived="1" entered="1" left="0" laneChangedFrom="0" laneChangedTo="0"/>
        <edge id="-1102306777#4" sampledSeconds="0.98" traveltime="0.05" overlapTraveltime="0.98" density="4.05" laneDensity="4.05" occupancy="0.08" waitingTime="0.00" timeLoss="0.33" speed="5.31" speedRelative="0.64" departed="0" arrived="0" entered="1" left="1" laneChangedFrom="0" laneChangedTo="0"/>
        <edge id="-1102370123" sampledSeconds="5.07" traveltime="4.39" overlapTraveltime="5.07" density="0.15" laneDensity="0.15" occupancy="0.06" waitingTime="0.00" timeLoss="1.12" speed="6.44" speedRelative="0.77" departed="0" arrived="0" entered="1" left="1" laneChangedFrom="0" laneChangedTo="0"/>
        <edge id="-1104034843" sampledSeconds="8.50" traveltime="8.01" overlapTraveltime="9.47" density="0.16" laneDensity="0.16" occupancy="0.07" waitingTime="0.00" timeLoss="3.12" speed="5.29" speedRelative="0.63" departed="1" arrived="0" entered="0" left="1" laneChangedFrom="0" laneChangedTo="0"/>
        <edge id="-1107425808#0" sampledSeconds="2.72" traveltime="0.03" overlapTraveltime="0.68" density="11.22" laneDensity="5.61" occupancy="0.11" waitingTime="0.00" timeLoss="0.12" speed="7.66" speedRelative="0.92" departed="0" arrived="0" entered="4" left="4" laneChangedFrom="0" laneChangedTo="0"/>
        <edge id="-1107425808#1" sampledSeconds="2.70" traveltime="0.03" overlapTraveltime="0.68" density="11.16" laneDensity="5.58" occupancy="0.11" waitingTime="0.00" timeLoss="0.10" speed="7.70" speedRelative="0.92" departed="0" arrived="0" entered="4" left="4" laneChangedFrom="0" laneChangedTo="0"/>
        <edge id="-1107838463" sampledSeconds="32.65" traveltime="9.87" overlapTraveltime="10.88" density="0.36" laneDensity="0.36" occupancy="0.17" waitingTime="0.00" timeLoss="3.42" speed="7.28" speedRelative="0.87" departed="0" arrived="0" entered="3" left="3" laneChangedFrom="0" laneChangedTo="0"/>
        <edge id="-1109716570#0" sampledSeconds="0.37" traveltime="0.01" overlapTraveltime="0.37" density="1.54" laneDensity="0.77" occupancy="0.01" waitingTime="0.00" timeLoss="0.02" speed="13.97" speedRelative="1.01" departed="0" arrived="0" entered="1" left="1" laneChangedFrom="0" laneChangedTo="0"/>
        <edge id="-1109716570#1" sampledSeconds="0.40" traveltime="0.05" overlapTraveltime="0.40" density="0.50" laneDensity="0.25" occupancy="0.01" waitingTime="0.00" timeLoss="0.01" speed="14.16" speedRelative="1.02" departed="0" arrived="0" entered="1" left="1" laneChangedFrom="0" laneChangedTo="0"/>
        <edge id="-1109716570#2" sampledSeconds="6.29" traveltime="5.94" overlapTraveltime="6.29" density="0.06" laneDensity="0.03" occupancy="0.01" waitingTime="0.00" timeLoss="0.29" speed="13.92" speedRelative="1.00" departed="0" arrived="0" entered="1" left="1" laneChangedFrom="0" laneChangedTo="0"/>
        <edge id="-1109716570#3" sampledSeconds="0.51" traveltime="0.15" overlapTraveltime="0.51" density="0.20" laneDensity="0.10" occupancy="0.02" waitingTime="0.00" timeLoss="0.03" speed="13.77" speedRelative="0.99" departed="0" arrived="0" entered="1" left="1" laneChangedFrom="0" laneChangedTo="0"/>
        <edge id="-1109909804" sampledSeconds="0.92" traveltime="0.02" overlapTraveltime="0.92" density="6.37" laneDensity="6.37" occupancy="0.07" waitingTime="0.00" timeLoss="0.29" speed="5.54" speedRelative="0.66" departed="0" arrived="0" entered="1" left="1" laneChangedFrom="0" laneChangedTo="0"/>
        <edge id="-1109909805" sampledSeconds="1.28" traveltime="0.35" overlapTraveltime="1.28" density="0.52" laneDensity="0.52" occupancy="0.07" waitingTime="0.00" timeLoss="0.20" speed="5.49" speedRelative="0.66" departed="0" arrived="0" entered="1" left="1" laneChangedFrom="0" laneChangedTo="0"/>
        <edge id="-1111565436#0" sampledSeconds="3.35" traveltime="0.06" overlapTraveltime="1.70" density="13.83" laneDensity="13.83" occupancy="0.27" waitingTime="0.00" timeLoss="1.48" speed="3.05" speedRelative="0.37" departed="0" arrived="0" entered="2" left="2" laneChangedFrom="0" laneChangedTo="0"/>
        <edge id="-1111565436#1" sampledSeconds="2.65" traveltime="0.03" overlapTraveltime="1.32" density="10.93" laneDensity="10.93" occupancy="0.21" waitingTime="0.00" timeLoss="0.61" speed="3.93" speedRelative="0.47" departed="0" arrived="0" entered="2" left="2" laneChangedFrom="0" laneChangedTo="0"/>
        <edge id="-1111565436#2" sampledSeconds="2.52" traveltime="0.03" overlapTraveltime="1.26" density="10.43" laneDensity="10.43" occupancy="0.20" waitingTime="0.00" timeLoss="0.60" speed="4.12" speedRelative="0.49" departed="0" arrived="0" entered="2" left="2" laneChangedFrom="0" laneChangedTo="0"/>
        <edge id="-1112887031#0" sampledSeconds="14.48" traveltime="5.23" overlapTraveltime="7.24" density="0.28" laneDensity="0.28" occupancy="0.11" waitingTime="0.00" timeLoss="5.06" speed="6.55" speedRelative="0.47" departed="0" arrived="0" entered="2" left="2" laneChangedFrom="0" laneChangedTo="0"/>
        <edge id="-1112887031#1" sampledSeconds="2.99" traveltime="1.01" overlapTraveltime="1.89" density="0.35" laneDensity="0.35" occupancy="0.12" waitingTime="0.00" timeLoss="1.55" speed="6.36" speedRelative="0.46" departed="1" arrived="0" entered="1" left="2" laneChangedFrom="0" laneChangedTo="0"/>
        <edge id="-1112887031#2" sampledSeconds="1.45" traveltime="1.09" overlapTraveltime="1.45" density="0.08" laneDensity="0.08" occupancy="0.03" waitingTime="0.00" timeLoss="0.06" speed="13.36" speedRelative="0.96" departed="0" arrived="0" entered="1" left="1" laneChangedFrom="0" laneChangedTo="0"/>
        <edge id="-1113564037#0" sampledSeconds="0.90" traveltime="0.04" overlapTraveltime="0.90" density="3.71" laneDensity="1.85" occupancy="0.04" waitingTime="0.00" timeLoss="0.12" speed="5.79" speedRelative="0.70" departed="0" arrived="0" entered="1" left="1" laneChangedFrom="0" laneChangedTo="0"/>
        <edge id="-1113564037#1" sampledSeconds="2.12" traveltime="0.05" overlapTraveltime="1.06" density="8.78" laneDensity="4.39" occupancy="0.08" waitingTime="0.00" timeLoss="0.58" speed="4.90" speedRelative="0.59" departed="0" arrived="0" entered="2" left="2" laneChangedFrom="0" laneChangedTo="0"/>
        <edge id="-1113647625" sampledSeconds="7.98" traveltime="7.33" overlapTraveltime="7.98" density="0.13" laneDensity="0.13" occupancy="0.06" waitingTime="0.00" timeLoss="1.02" speed="6.97" speedRelative="0.84" departed="0" arrived="0" entered="1" left="1" laneChangedFrom="0" laneChangedTo="0"/>
        <edge id="-111513754#0" sampledSeconds="16.34" traveltime="7.47" overlapTraveltime="8.17" density="0.25" laneDensity="0.25" occupancy="0.11" waitingTime="0.00" timeLoss="1.88" speed="7.34" speedRelative="0.88" departed="0" arrived="0" entered="2" left="2" laneChangedFrom="0" laneChangedTo="0"/>
        <edge id="-111513754#1" sampledSeconds="13.40" traveltime="6.04" overlapTraveltime="6.70" density="0.24" laneDensity="0.24" occupancy="0.11" waitingTime="0.00" timeLoss="1.24" speed="7.57" speedRelative="0.91" departed="0" arrived="0" entered="2" left="2" laneChangedFrom="0" laneChangedTo="0"/>
        <edge id="-111513754#2" sampledSeconds="35.31" traveltime="17.00" overlapTraveltime="17.66" density="0.22" laneDensity="0.22" occupancy="0.11" waitingTime="0.00" timeLoss="2.85" speed="7.66" speedRelative="0.92" departed="0" arrived="0" entered="2" left="2" laneChangedFrom="0" laneChangedTo="0"/>
        <edge id="-1119680146" sampledSeconds="71.30" traveltime="11.23" overlapTraveltime="11.88" density="0.67" laneDensity="0.67" occupancy="0.32" waitingTime="0.00" timeLoss="6.60" speed="7.85" speedRelative="0.94" departed="0" arrived="0" entered="6" left="6" laneChangedFrom="0" laneChangedTo="0"/>