<?xml version="1.0" encoding="UTF-8"?>

<!-- generated on 2023-07-14 01:29:55 by Eclipse SUMO sumo Version 1.18.0
<configuration xmlns:xsi="http://www.w3.org/2001/XMLSchema-instance" xsi:noNamespaceSchemaLocation="http://sumo.dlr.de/xsd/sumoConfiguration.xsd">

    <input>
        <net-file value="/Users/amanzer/Desktop/memo/sumo-simulation/ixelles/ixelles.net.xml"/>
        <route-files value="/Users/amanzer/Desktop/memo/sumo-simulation/ixelles/ixelles.routes.xml"/>
        <additional-files value="/Users/amanzer/Desktop/memo/sumo-simulation/ixelles/ixelles.poly.xml"/>
    </input>

    <output>
        <tripinfo-output value="tripinfo1.xml"/>
        <edgedata-output value="edgeData1.xml"/>
    </output>

    <processing>
        <ignore-route-errors value="true"/>
    </processing>

</configuration>
-->

<meandata xmlns:xsi="http://www.w3.org/2001/XMLSchema-instance" xsi:noNamespaceSchemaLocation="http://sumo.dlr.de/xsd/meandata_file.xsd">
    <interval begin="0.00" end="1211.00" id="DEFAULT_EDGEDATA">
        <edge id="-1001144919" sampledSeconds="3.29" traveltime="3.91" overlapTraveltime="4.46" density="0.19" laneDensity="0.19" occupancy="0.08" waitingTime="0.00" timeLoss="1.69" speed="4.36" speedRelative="0.52" departed="1" arrived="0" entered="0" left="1" laneChangedFrom="0" laneChangedTo="0"/>
        <edge id="-100612596#0" sampledSeconds="8.89" traveltime="1.11" overlapTraveltime="1.94" density="1.01" laneDensity="1.01" occupancy="0.31" waitingTime="0.00" timeLoss="1.12" speed="6.32" speedRelative="0.76" departed="1" arrived="0" entered="4" left="5" laneChangedFrom="0" laneChangedTo="0"/>
        <edge id="-100612596#1" sampledSeconds="6.10" traveltime="0.81" overlapTraveltime="1.53" density="1.07" laneDensity="1.07" occupancy="0.25" waitingTime="0.00" timeLoss="1.36" speed="6.36" speedRelative="0.76" departed="0" arrived="0" entered="4" left="4" laneChangedFrom="0" laneChangedTo="0"/>
        <edge id="-100612596#2" sampledSeconds="56.14" traveltime="13.15" overlapTraveltime="14.03" density="0.51" laneDensity="0.51" occupancy="0.24" waitingTime="2.00" timeLoss="9.43" speed="6.81" speedRelative="0.82" departed="0" arrived="0" entered="4" left="4" laneChangedFrom="0" laneChangedTo="0"/>
        <edge id="-100612596#3" sampledSeconds="38.77" traveltime="9.02" overlapTraveltime="9.69" density="0.47" laneDensity="0.47" occupancy="0.22" waitingTime="0.00" timeLoss="3.30" speed="7.49" speedRelative="0.90" departed="0" arrived="0" entered="4" left="4" laneChangedFrom="0" laneChangedTo="0"/>
        <edge id="-100612596#4" sampledSeconds="20.54" traveltime="4.47" overlapTraveltime="5.14" density="0.50" laneDensity="0.50" occupancy="0.22" waitingTime="0.00" timeLoss="1.57" speed="7.56" speedRelative="0.91" departed="0" arrived="0" entered="4" left="4" laneChangedFrom="0" laneChangedTo="0"/>
        <edge id="-100612596#5" sampledSeconds="4.10" traveltime="0.36" overlapTraveltime="1.03" density="1.26" laneDensity="1.26" occupancy="0.22" waitingTime="0.00" timeLoss="0.34" speed="7.50" speedRelative="0.90" departed="0" arrived="0" entered="4" left="4" laneChangedFrom="0" laneChangedTo="0"/>
        <edge id="-100612596#6" sampledSeconds="2.80" traveltime="0.03" overlapTraveltime="0.70" density="11.55" laneDensity="11.55" occupancy="0.22" waitingTime="0.00" timeLoss="0.25" speed="7.44" speedRelative="0.89" departed="0" arrived="0" entered="4" left="4" laneChangedFrom="0" laneChangedTo="0"/>
        <edge id="-100612596#7" sampledSeconds="12.28" traveltime="3.45" overlapTraveltime="4.09" density="0.39" laneDensity="0.39" occupancy="0.16" waitingTime="0.00" timeLoss="0.84" speed="7.65" speedRelative="0.92" departed="0" arrived="0" entered="3" left="3" laneChangedFrom="0" laneChangedTo="0"/>
        <edge id="-1020500179" sampledSeconds="64.04" traveltime="15.35" overlapTraveltime="16.01" density="0.45" laneDensity="0.45" occupancy="0.22" waitingTime="0.00" timeLoss="5.24" speed="7.63" speedRelative="0.92" departed="0" arrived="0" entered="4" left="4" laneChangedFrom="0" laneChangedTo="0"/>
        <edge id="-1020500384" sampledSeconds="19.60" traveltime="5.56" overlapTraveltime="6.53" density="0.41" laneDensity="0.41" occupancy="0.18" waitingTime="0.00" timeLoss="2.22" speed="6.78" speedRelative="0.81" departed="0" arrived="0" entered="3" left="3" laneChangedFrom="0" laneChangedTo="0"/>
        <edge id="-1020500385#0" sampledSeconds="17.64" traveltime="5.21" overlapTraveltime="5.88" density="0.38" laneDensity="0.38" occupancy="0.17" waitingTime="0.00" timeLoss="1.45" speed="7.43" speedRelative="0.89" departed="0" arrived="0" entered="3" left="3" laneChangedFrom="0" laneChangedTo="0"/>
        <edge id="-1020500385#1" sampledSeconds="2.05" traveltime="0.03" overlapTraveltime="0.68" density="8.47" laneDensity="8.47" occupancy="0.16" waitingTime="0.00" timeLoss="0.12" speed="7.61" speedRelative="0.91" departed="0" arrived="0" entered="3" left="3" laneChangedFrom="0" laneChangedTo="0"/>
        <edge id="-1020500385#2" sampledSeconds="27.80" traveltime="8.57" overlapTraveltime="9.27" density="0.36" laneDensity="0.36" occupancy="0.17" waitingTime="0.00" timeLoss="2.44" speed="7.38" speedRelative="0.89" departed="0" arrived="0" entered="3" left="3" laneChangedFrom="0" laneChangedTo="0"/>
        <edge id="-102795373" sampledSeconds="6.03" traveltime="5.82" overlapTraveltime="7.16" density="0.18" laneDensity="0.18" occupancy="0.08" waitingTime="0.00" timeLoss="2.77" speed="4.51" speedRelative="0.54" departed="1" arrived="0" entered="0" left="1" laneChangedFrom="0" laneChangedTo="0"/>
        <edge id="-1028388888" sampledSeconds="3.62" traveltime="0.03" overlapTraveltime="0.72" density="14.94" laneDensity="14.94" occupancy="0.29" waitingTime="0.00" timeLoss="0.59" speed="7.18" speedRelative="0.86" departed="0" arrived="0" entered="5" left="5" laneChangedFrom="0" laneChangedTo="0"/>
        <edge id="-1037986847" sampledSeconds="0.60" traveltime="0.02" overlapTraveltime="0.60" density="2.50" laneDensity="1.25" occupancy="0.02" waitingTime="0.00" timeLoss="0.06" speed="8.60" speedRelative="1.03" departed="0" arrived="0" entered="1" left="1" laneChangedFrom="0" laneChangedTo="0"/>
        <edge id="-1041085657#0" sampledSeconds="5.92" traveltime="0.80" overlapTraveltime="1.48" density="0.83" laneDensity="0.83" occupancy="0.22" waitingTime="0.00" timeLoss="0.52" speed="7.35" speedRelative="0.88" departed="0" arrived="0" entered="4" left="4" laneChangedFrom="0" laneChangedTo="0"/>
        <edge id="-1041085657#1" sampledSeconds="8.98" traveltime="1.51" overlapTraveltime="2.24" density="0.67" laneDensity="0.67" occupancy="0.23" waitingTime="0.00" timeLoss="0.97" speed="7.19" speedRelative="0.86" departed="0" arrived="0" entered="4" left="4" laneChangedFrom="0" laneChangedTo="0"/>
        <edge id="-104414427" sampledSeconds="19.35" traveltime="3.18" overlapTraveltime="3.87" density="0.67" laneDensity="0.67" occupancy="0.28" waitingTime="0.00" timeLoss="1.56" speed="7.43" speedRelative="0.89" departed="0" arrived="0" entered="5" left="5" laneChangedFrom="0" laneChangedTo="0"/>
        <edge id="-104414445#0" sampledSeconds="23.80" traveltime="4.07" overlapTraveltime="4.76" density="0.67" laneDensity="0.67" occupancy="0.28" waitingTime="0.00" timeLoss="2.52" speed="7.22" speedRelative="0.87" departed="0" arrived="0" entered="5" left="5" laneChangedFrom="0" laneChangedTo="0"/>
        <edge id="-105061387#0" sampledSeconds="1.19" traveltime="0.04" overlapTraveltime="1.19" density="4.90" laneDensity="4.90" occupancy="0.09" waitingTime="0.00" timeLoss="0.22" speed="4.38" speedRelative="0.53" departed="0" arrived="0" entered="1" left="1" laneChangedFrom="0" laneChangedTo="0"/>
        <edge id="-105061387#1" sampledSeconds="10.52" traveltime="10.53" overlapTraveltime="11.39" density="0.14" laneDensity="0.14" occupancy="0.07" waitingTime="0.00" timeLoss="2.66" speed="5.85" speedRelative="0.70" departed="1" arrived="0" entered="0" left="1" laneChangedFrom="0" laneChangedTo="0"/>
        <edge id="-1056200664" sampledSeconds="6.33" traveltime="2.10" overlapTraveltime="3.17" density="0.34" laneDensity="0.34" occupancy="0.13" waitingTime="0.00" timeLoss="0.69" speed="6.38" speedRelative="0.77" departed="0" arrived="0" entered="2" left="2" laneChangedFrom="0" laneChangedTo="0"/>
        <edge id="-1056200665#1" sampledSeconds="1.13" traveltime="0.04" overlapTraveltime="1.13" density="4.66" laneDensity="4.66" occupancy="0.09" waitingTime="0.00" timeLoss="0.22" speed="4.60" speedRelative="0.83" departed="0" arrived="0" entered="1" left="1" laneChangedFrom="0" laneChangedTo="0"/>
        <edge id="-1056200665#2" sampledSeconds="4.81" traveltime="1.43" overlapTraveltime="2.41" density="0.59" laneDensity="0.59" occupancy="0.17" waitingTime="0.00" timeLoss="0.85" speed="4.88" speedRelative="0.88" departed="0" arrived="0" entered="2" left="2" laneChangedFrom="0" laneChangedTo="0"/>
        <edge id="-1057896580#1" sampledSeconds="0.61" traveltime="0.02" overlapTraveltime="0.61" density="2.53" laneDensity="2.53" occupancy="0.05" waitingTime="0.00" timeLoss="0.06" speed="8.49" speedRelative="1.02" departed="0" arrived="0" entered="1" left="1" laneChangedFrom="0" laneChangedTo="0"/>
        <edge id="-1064675850" sampledSeconds="0.82" traveltime="0.02" overlapTraveltime="0.82" density="6.74" laneDensity="6.74" occupancy="0.07" waitingTime="0.00" timeLoss="0.18" speed="6.25" speedRelative="0.75" departed="0" arrived="0" entered="1" left="1" laneChangedFrom="0" laneChangedTo="0"/>
        <edge id="-1064675851#0" sampledSeconds="2.61" traveltime="1.56" overlapTraveltime="2.61" density="0.62" laneDensity="0.62" occupancy="0.11" waitingTime="0.00" timeLoss="1.70" speed="3.26" speedRelative="0.39" departed="0" arrived="0" entered="1" left="1" laneChangedFrom="0" laneChangedTo="0"/>
        <edge id="-1064675851#1" sampledSeconds="2.09" overlapTraveltime="2.29" density="3.52" laneDensity="3.52" occupancy="0.17" waitingTime="0.00" timeLoss="1.55" speed="2.39" speedRelative="0.29" departed="1" arrived="0" entered="0" left="1" laneChangedFrom="0" laneChangedTo="0"/>
        <edge id="-1066438511#0" sampledSeconds="1.64" traveltime="0.86" overlapTraveltime="1.64" density="0.28" laneDensity="0.28" occupancy="0.07" waitingTime="0.00" timeLoss="0.19" speed="5.99" speedRelative="0.72" departed="0" arrived="0" entered="1" left="1" laneChangedFrom="0" laneChangedTo="0"/>
        <edge id="-1066438511#1" sampledSeconds="9.44" traveltime="8.61" overlapTraveltime="9.44" density="0.15" laneDensity="0.15" occupancy="0.07" waitingTime="0.00" timeLoss="0.95" speed="6.16" speedRelative="0.74" departed="0" arrived="0" entered="1" left="1" laneChangedFrom="0" laneChangedTo="0"/>
        <edge id="-1066478854#0" sampledSeconds="5.37" traveltime="4.80" overlapTraveltime="5.37" density="0.12" laneDensity="0.12" occupancy="0.05" waitingTime="0.00" timeLoss="0.56" speed="8.05" speedRelative="0.97" departed="0" arrived="0" entered="1" left="1" laneChangedFrom="0" laneChangedTo="0"/>
        <edge id="-1066478854#1" sampledSeconds="1.82" traveltime="0.94" overlapTraveltime="1.82" density="0.39" laneDensity="0.39" occupancy="0.08" waitingTime="0.00" timeLoss="0.83" speed="4.87" speedRelative="0.59" departed="0" arrived="0" entered="1" left="1" laneChangedFrom="0" laneChangedTo="0"/>
        <edge id="-1071065219" sampledSeconds="17.91" traveltime="17.13" overlapTraveltime="17.91" density="0.11" laneDensity="0.11" occupancy="0.05" waitingTime="0.00" timeLoss="1.53" speed="8.04" speedRelative="0.96" departed="0" arrived="0" entered="1" left="1" laneChangedFrom="0" laneChangedTo="0"/>
        <edge id="-1071065280" sampledSeconds="55.61" traveltime="26.49" overlapTraveltime="27.80" density="0.25" laneDensity="0.25" occupancy="0.12" waitingTime="0.00" timeLoss="6.47" speed="6.70" speedRelative="0.80" departed="0" arrived="0" entered="2" left="2" laneChangedFrom="0" laneChangedTo="0"/>
        <edge id="-1077818352" sampledSeconds="1.18" traveltime="0.49" overlapTraveltime="1.18" density="0.29" laneDensity="0.29" occupancy="0.06" waitingTime="0.00" timeLoss="0.14" speed="7.14" speedRelative="0.86" departed="0" arrived="0" entered="1" left="1" laneChangedFrom="0" laneChangedTo="0"/>
        <edge id="-1077819553" sampledSeconds="46.78" traveltime="6.00" overlapTraveltime="6.68" density="0.88" laneDensity="0.88" occupancy="0.39" waitingTime="0.00" timeLoss="5.68" speed="7.34" speedRelative="0.88" departed="0" arrived="0" entered="7" left="7" laneChangedFrom="0" laneChangedTo="0"/>
        <edge id="-1077825730" sampledSeconds="14.10" traveltime="1.36" overlapTraveltime="2.01" density="1.12" laneDensity="1.12" occupancy="0.38" waitingTime="0.00" timeLoss="1.23" speed="7.62" speedRelative="0.92" departed="0" arrived="0" entered="7" left="7" laneChangedFrom="0" laneChangedTo="0"/>
        <edge id="-1077835592#0" sampledSeconds="55.93" traveltime="7.33" overlapTraveltime="7.99" density="0.82" laneDensity="0.82" occupancy="0.38" waitingTime="0.00" timeLoss="4.71" speed="7.65" speedRelative="0.92" departed="0" arrived="0" entered="7" left="7" laneChangedFrom="0" laneChangedTo="0"/>
        <edge id="-1077835592#1" sampledSeconds="33.29" traveltime="4.10" overlapTraveltime="4.76" density="0.87" laneDensity="0.87" occupancy="0.37" waitingTime="0.00" timeLoss="2.57" speed="7.71" speedRelative="0.93" departed="0" arrived="0" entered="7" left="7" laneChangedFrom="0" laneChangedTo="0"/>
        <edge id="-1077835594#0" sampledSeconds="16.59" traveltime="1.71" overlapTraveltime="2.37" density="1.05" laneDensity="1.05" occupancy="0.38" waitingTime="0.00" timeLoss="1.33" speed="7.61" speedRelative="0.91" departed="0" arrived="0" entered="7" left="7" laneChangedFrom="0" laneChangedTo="0"/>
        <edge id="-1077835594#1" sampledSeconds="10.40" traveltime="0.66" overlapTraveltime="1.30" density="1.71" laneDensity="1.71" occupancy="0.43" waitingTime="0.00" timeLoss="0.77" speed="7.70" speedRelative="0.92" departed="0" arrived="1" entered="8" left="7" laneChangedFrom="0" laneChangedTo="0"/>
        <edge id="-1078796766#2" sampledSeconds="11.90" traveltime="11.63" overlapTraveltime="12.30" density="0.12" laneDensity="0.12" occupancy="0.06" waitingTime="0.00" timeLoss="1.59" speed="7.18" speedRelative="0.86" departed="0" arrived="1" entered="1" left="0" laneChangedFrom="0" laneChangedTo="0"/>
        <edge id="-1078802248#0" sampledSeconds="3.55" traveltime="3.02" overlapTraveltime="3.55" density="0.11" laneDensity="0.11" occupancy="0.04" waitingTime="0.00" timeLoss="0.29" speed="9.20" speedRelative="1.10" departed="0" arrived="0" entered="1" left="1" laneChangedFrom="0" laneChangedTo="0"/>
        <edge id="-1078802248#1" sampledSeconds="0.58" traveltime="0.02" overlapTraveltime="0.58" density="2.39" laneDensity="2.39" occupancy="0.05" waitingTime="0.00" timeLoss="0.06" speed="8.97" speedRelative="1.08" departed="0" arrived="0" entered="1" left="1" laneChangedFrom="0" laneChangedTo="0"/>
        <edge id="-1078802248#2" sampledSeconds="6.33" traveltime="2.72" overlapTraveltime="3.37" density="0.28" laneDensity="0.28" occupancy="0.11" waitingTime="0.00" timeLoss="1.10" speed="6.96" speedRelative="0.84" departed="0" arrived="1" entered="2" left="1" laneChangedFrom="0" laneChangedTo="0"/>
        <edge id="-1079611695#0" sampledSeconds="2.76" traveltime="2.18" overlapTraveltime="2.76" density="0.12" laneDensity="0.12" occupancy="0.05" waitingTime="0.00" timeLoss="0.16" speed="8.89" speedRelative="1.07" departed="0" arrived="0" entered="1" left="1" laneChangedFrom="0" laneChangedTo="0"/>
        <edge id="-1079611695#1" sampledSeconds="0.79" traveltime="0.09" overlapTraveltime="0.79" density="1.01" laneDensity="1.01" occupancy="0.06" waitingTime="0.00" timeLoss="0.19" speed="7.13" speedRelative="0.86" departed="0" arrived="0" entered="1" left="1" laneChangedFrom="0" laneChangedTo="0"/>
        <edge id="-1079611695#2" sampledSeconds="0.75" traveltime="0.03" overlapTraveltime="0.75" density="3.11" laneDensity="3.11" occupancy="0.06" waitingTime="0.00" timeLoss="0.20" speed="6.91" speedRelative="0.83" departed="0" arrived="0" entered="1" left="1" laneChangedFrom="0" laneChangedTo="0"/>
        <edge id="-1080979953#0" sampledSeconds="1.46" traveltime="0.71" overlapTraveltime="1.46" density="0.28" laneDensity="0.28" occupancy="0.06" waitingTime="0.00" timeLoss="0.20" speed="6.42" speedRelative="0.77" departed="0" arrived="0" entered="1" left="1" laneChangedFrom="0" laneChangedTo="0"/>
        <edge id="-1080979953#1" sampledSeconds="4.22" traveltime="3.46" overlapTraveltime="4.22" density="0.11" laneDensity="0.11" occupancy="0.05" waitingTime="0.00" timeLoss="0.40" speed="8.54" speedRelative="1.03" departed="0" arrived="0" entered="1" left="1" laneChangedFrom="0" laneChangedTo="0"/>
        <edge id="-1080979953#2" sampledSeconds="2.82" traveltime="2.28" overlapTraveltime="2.82" density="0.12" laneDensity="0.12" occupancy="0.05" waitingTime="0.00" timeLoss="0.21" speed="8.72" speedRelative="1.05" departed="0" arrived="0" entered="1" left="1" laneChangedFrom="0" laneChangedTo="0"/>
        <edge id="-1080979953#3" sampledSeconds="4.45" traveltime="3.91" overlapTraveltime="4.45" density="0.11" laneDensity="0.11" occupancy="0.05" waitingTime="0.00" timeLoss="0.49" speed="8.39" speedRelative="1.01" departed="0" arrived="0" entered="1" left="1" laneChangedFrom="0" laneChangedTo="0"/>
        <edge id="-1080979953#4" sampledSeconds="0.79" traveltime="0.04" overlapTraveltime="0.79" density="3.25" laneDensity="3.25" occupancy="0.06" waitingTime="0.00" timeLoss="0.24" speed="6.61" speedRelative="0.79" departed="0" arrived="0" entered="1" left="1" laneChangedFrom="0" laneChangedTo="0"/>
        <edge id="-1083809476#0" sampledSeconds="8.02" traveltime="0.05" overlapTraveltime="0.80" density="22.84" laneDensity="22.84" occupancy="0.63" waitingTime="0.00" timeLoss="4.57" speed="6.60" speedRelative="0.79" departed="0" arrived="0" entered="10" left="10" laneChangedFrom="0" laneChangedTo="0"/>
        <edge id="-1083809476#1" sampledSeconds="19.37" traveltime="1.18" overlapTraveltime="1.94" density="2.46" laneDensity="2.46" occupancy="0.71" waitingTime="0.00" timeLoss="8.73" speed="5.94" speedRelative="0.71" departed="0" arrived="0" entered="10" left="10" laneChangedFrom="0" laneChangedTo="0"/>
        <edge id="-1083809476#2" sampledSeconds="90.64" traveltime="8.15" overlapTraveltime="9.06" density="1.37" laneDensity="1.37" occupancy="0.62" waitingTime="3.00" timeLoss="16.19" speed="6.56" speedRelative="0.79" departed="0" arrived="0" entered="10" left="10" laneChangedFrom="0" laneChangedTo="0"/>
        <edge id="-1083809476#3" sampledSeconds="7.62" traveltime="0.03" overlapTraveltime="0.76" density="31.46" laneDensity="31.46" occupancy="0.60" waitingTime="0.00" timeLoss="1.08" speed="6.83" speedRelative="0.82" departed="0" arrived="0" entered="10" left="10" laneChangedFrom="0" laneChangedTo="0"/>
        <edge id="-1084662162" sampledSeconds="11.16" traveltime="10.56" overlapTraveltime="11.16" density="0.11" laneDensity="0.11" occupancy="0.05" waitingTime="0.00" timeLoss="1.62" speed="8.21" speedRelative="0.99" departed="0" arrived="0" entered="1" left="1" laneChangedFrom="0" laneChangedTo="0"/>
        <edge id="-1084662163#2" sampledSeconds="0.87" traveltime="0.29" overlapTraveltime="0.87" density="0.28" laneDensity="0.28" occupancy="0.05" waitingTime="0.00" timeLoss="0.08" speed="8.68" speedRelative="1.04" departed="0" arrived="1" entered="1" left="0" laneChangedFrom="0" laneChangedTo="0"/>
        <edge id="-1084662163#3" sampledSeconds="4.70" traveltime="4.13" overlapTraveltime="4.70" density="0.11" laneDensity="0.11" occupancy="0.05" waitingTime="0.00" timeLoss="0.34" speed="8.90" speedRelative="1.07" departed="0" arrived="0" entered="1" left="1" laneChangedFrom="0" laneChangedTo="0"/>
        <edge id="-1085974779#0" sampledSeconds="1.77" traveltime="0.07" overlapTraveltime="1.77" density="7.32" laneDensity="7.32" occupancy="0.14" waitingTime="0.00" timeLoss="0.83" speed="2.93" speedRelative="0.35" departed="0" arrived="0" entered="1" left="1" laneChangedFrom="0" laneChangedTo="0"/>
        <edge id="-1085974779#1" sampledSeconds="12.98" traveltime="11.76" overlapTraveltime="12.98" density="0.17" laneDensity="0.17" occupancy="0.08" waitingTime="0.00" timeLoss="1.68" speed="5.28" speedRelative="0.63" departed="0" arrived="0" entered="1" left="1" laneChangedFrom="0" laneChangedTo="0"/>
        <edge id="-1085974779#2" sampledSeconds="2.19" traveltime="0.76" overlapTraveltime="2.19" density="1.39" laneDensity="1.39" occupancy="0.14" waitingTime="0.00" timeLoss="1.16" speed="2.87" speedRelative="0.34" departed="0" arrived="0" entered="1" left="1" laneChangedFrom="0" laneChangedTo="0"/>
        <edge id="-1088286509#0" sampledSeconds="0.82" traveltime="0.05" overlapTraveltime="0.82" density="2.05" laneDensity="2.05" occupancy="0.06" waitingTime="0.00" timeLoss="0.10" speed="6.51" speedRelative="0.78" departed="0" arrived="0" entered="1" left="1" laneChangedFrom="0" laneChangedTo="0"/>
        <edge id="-1088286509#1" sampledSeconds="5.73" traveltime="5.00" overlapTraveltime="5.73" density="0.14" laneDensity="0.14" occupancy="0.06" waitingTime="0.00" timeLoss="0.64" speed="6.61" speedRelative="0.79" departed="0" arrived="0" entered="1" left="1" laneChangedFrom="0" laneChangedTo="0"/>
        <edge id="-1089069632" sampledSeconds="8.14" traveltime="0.19" overlapTraveltime="0.63" density="3.22" laneDensity="1.61" occupancy="0.24" waitingTime="0.00" timeLoss="1.34" speed="11.33" speedRelative="0.82" departed="0" arrived="0" entered="13" left="13" laneChangedFrom="0" laneChangedTo="0"/>
        <edge id="-1095324879" sampledSeconds="7.06" traveltime="6.41" overlapTraveltime="7.06" density="0.12" laneDensity="0.12" occupancy="0.06" waitingTime="0.00" timeLoss="0.63" speed="7.45" speedRelative="0.89" departed="0" arrived="0" entered="1" left="1" laneChangedFrom="0" laneChangedTo="0"/>
        <edge id="-1102306777#3" sampledSeconds="0.90" traveltime="0.79" overlapTraveltime="1.54" density="0.14" laneDensity="0.14" occupancy="0.04" waitingTime="0.00" timeLoss="0.14" speed="6.66" speedRelative="0.80" departed="0" arrived="1" entered="1" left="0" laneChangedFrom="0" laneChangedTo="0"/>
        <edge id="-1102306777#4" sampledSeconds="1.05" traveltime="0.04" overlapTraveltime="1.05" density="4.34" laneDensity="4.34" occupancy="0.08" waitingTime="0.00" timeLoss="0.40" speed="4.95" speedRelative="0.59" departed="0" arrived="0" entered="1" left="1" laneChangedFrom="0" laneChangedTo="0"/>
        <edge id="-1102370123" sampledSeconds="4.23" traveltime="3.62" overlapTraveltime="4.23" density="0.13" laneDensity="0.13" occupancy="0.05" waitingTime="0.00" timeLoss="0.28" speed="7.71" speedRelative="0.93" departed="0" arrived="0" entered="1" left="1" laneChangedFrom="0" laneChangedTo="0"/>
        <edge id="-1104034843" sampledSeconds="8.62" traveltime="8.09" overlapTraveltime="9.59" density="0.16" laneDensity="0.16" occupancy="0.07" waitingTime="0.00" timeLoss="3.20" speed="5.22" speedRelative="0.63" departed="1" arrived="0" entered="0" left="1" laneChangedFrom="0" laneChangedTo="0"/>
        <edge id="-1107425808#0" sampledSeconds="2.80" traveltime="0.03" overlapTraveltime="0.70" density="11.57" laneDensity="5.78" occupancy="0.11" waitingTime="0.00" timeLoss="0.20" speed="7.43" speedRelative="0.89" departed="0" arrived="0" entered="4" left="4" laneChangedFrom="0" laneChangedTo="0"/>
        <edge id="-1107425808#1" sampledSeconds="2.78" traveltime="0.03" overlapTraveltime="0.69" density="11.47" laneDensity="5.74" occupancy="0.11" waitingTime="0.00" timeLoss="0.18" speed="7.49" speedRelative="0.90" departed="0" arrived="0" entered="4" left="4" laneChangedFrom="0" laneChangedTo="0"/>
        <edge id="-1107838463" sampledSeconds="31.80" traveltime="9.65" overlapTraveltime="10.60" density="0.35" laneDensity="0.35" occupancy="0.16" waitingTime="0.00" timeLoss="2.58" speed="7.48" speedRelative="0.90" departed="0" arrived="0" entered="3" left="3" laneChangedFrom="0" laneChangedTo="0"/>
        <edge id="-1109716570#0" sampledSeconds="0.39" traveltime="0.01" overlapTraveltime="0.39" density="1.59" laneDensity="0.80" occupancy="0.02" waitingTime="0.00" timeLoss="0.03" speed="13.46" speedRelative="0.97" departed="0" arrived="0" entered="1" left="1" laneChangedFrom="0" laneChangedTo="0"/>
        <edge id="-1109716570#1" sampledSeconds="0.41" traveltime="0.05" overlapTraveltime="0.41" density="0.52" laneDensity="0.26" occupancy="0.02" waitingTime="0.00" timeLoss="0.03" speed="13.69" speedRelative="0.99" departed="0" arrived="0" entered="1" left="1" laneChangedFrom="0" laneChangedTo="0"/>
        <edge id="-1109716570#2" sampledSeconds="6.24" traveltime="5.87" overlapTraveltime="6.24" density="0.06" laneDensity="0.03" occupancy="0.01" waitingTime="0.00" timeLoss="0.24" speed="14.04" speedRelative="1.01" departed="0" arrived="0" entered="1" left="1" laneChangedFrom="0" laneChangedTo="0"/>
        <edge id="-1109716570#3" sampledSeconds="0.50" traveltime="0.15" overlapTraveltime="0.50" density="0.20" laneDensity="0.10" occupancy="0.01" waitingTime="0.00" timeLoss="0.01" speed="14.20" speedRelative="1.02" departed="0" arrived="0" entered="1" left="1" laneChangedFrom="0" laneChangedTo="0"/>
        <edge id="-1109909804" sampledSeconds="0.91" traveltime="0.02" overlapTraveltime="0.91" density="6.25" laneDensity="6.25" occupancy="0.07" waitingTime="0.00" timeLoss="0.28" speed="5.64" speedRelative="0.68" departed="0" arrived="0" entered="1" left="1" laneChangedFrom="0" laneChangedTo="0"/>
        <edge id="-1109909805" sampledSeconds="1.08" traveltime="0.29" overlapTraveltime="1.08" density="0.44" laneDensity="0.44" occupancy="0.06" waitingTime="0.00" timeLoss="0.07" speed="6.54" speedRelative="0.79" departed="0" arrived="0" entered="1" left="1" laneChangedFrom="0" laneChangedTo="0"/>
        <edge id="-1111565436#0" sampledSeconds="2.96" traveltime="0.05" overlapTraveltime="1.48" density="12.22" laneDensity="12.22" occupancy="0.24" waitingTime="0.00" timeLoss="1.24" speed="3.51" speedRelative="0.42" departed="0" arrived="0" entered="2" left="2" laneChangedFrom="0" laneChangedTo="0"/>
        <edge id="-1111565436#1" sampledSeconds="2.63" traveltime="0.05" overlapTraveltime="1.31" density="10.85" laneDensity="10.85" occupancy="0.21" waitingTime="0.00" timeLoss="0.68" speed="3.96" speedRelative="0.48" departed="0" arrived="0" entered="2" left="2" laneChangedFrom="0" laneChangedTo="0"/>
        <edge id="-1111565436#2" sampledSeconds="2.60" traveltime="0.05" overlapTraveltime="1.30" density="10.74" laneDensity="10.74" occupancy="0.21" waitingTime="0.00" timeLoss="0.77" speed="4.00" speedRelative="0.48" departed="0" arrived="0" entered="2" left="2" laneChangedFrom="0" laneChangedTo="0"/>
        <edge id="-1112887031#0" sampledSeconds="13.98" traveltime="5.06" overlapTraveltime="6.99" density="0.27" laneDensity="0.27" occupancy="0.11" waitingTime="0.00" timeLoss="4.94" speed="6.79" speedRelative="0.49" departed="0" arrived="0" entered="2" left="2" laneChangedFrom="0" laneChangedTo="0"/>
        <edge id="-1112887031#1" sampledSeconds="3.01" traveltime="1.02" overlapTraveltime="1.91" density="0.35" laneDensity="0.35" occupancy="0.12" waitingTime="0.00" timeLoss="1.57" speed="6.31" speedRelative="0.45" departed="1" arrived="0" entered="1" left="2" laneChangedFrom="0" laneChangedTo="0"/>
        <edge id="-1112887031#2" sampledSeconds="1.45" traveltime="1.09" overlapTraveltime="1.45" density="0.08" laneDensity="0.08" occupancy="0.03" waitingTime="0.00" timeLoss="0.05" speed="13.41" speedRelative="0.97" departed="0" arrived="0" entered="1" left="1" laneChangedFrom="0" laneChangedTo="0"/>
        <edge id="-1113564037#0" sampledSeconds="0.89" traveltime="0.04" overlapTraveltime="0.89" density="3.68" laneDensity="1.84" occupancy="0.04" waitingTime="0.00" timeLoss="0.12" speed="5.83" speedRelative="0.70" departed="0" arrived="0" entered="1" left="1" laneChangedFrom="0" laneChangedTo="0"/>
        <edge id="-1113564037#1" sampledSeconds="1.91" traveltime="0.03" overlapTraveltime="0.96" density="7.89" laneDensity="3.95" occupancy="0.08" waitingTime="0.00" timeLoss="0.29" speed="5.44" speedRelative="0.65" departed="0" arrived="0" entered="2" left="2" laneChangedFrom="0" laneChangedTo="0"/>
        <edge id="-1113647625" sampledSeconds="7.67" traveltime="7.04" overlapTraveltime="7.67" density="0.13" laneDensity="0.13" occupancy="0.06" waitingTime="0.00" timeLoss="0.71" speed="7.25" speedRelative="0.87" departed="0" arrived="0" entered="1" left="1" laneChangedFrom="0" laneChangedTo="0"/>
        <edge id="-111513754#0" sampledSeconds="15.88" traveltime="7.25" overlapTraveltime="7.94" density="0.24" laneDensity="0.24" occupancy="0.11" waitingTime="0.00" timeLoss="1.42" speed="7.55" speedRelative="0.91" departed="0" arrived="0" entered="2" left="2" laneChangedFrom="0" laneChangedTo="0"/>
        <edge id="-111513754#1" sampledSeconds="12.85" traveltime="5.78" overlapTraveltime="6.43" density="0.23" laneDensity="0.23" occupancy="0.10" waitingTime="0.00" timeLoss="0.69" speed="7.89" speedRelative="0.95" departed="0" arrived="0" entered="2" left="2" laneChangedFrom="0" laneChangedTo="0"/>
        <edge id="-111513754#2" sampledSeconds="35.31" traveltime="17.00" overlapTraveltime="17.66" density="0.22" laneDensity="0.22" occupancy="0.11" waitingTime="0.00" timeLoss="2.85" speed="7.66" speedRelative="0.92" departed="0" arrived="0" entered="2" left="2" laneChangedFrom="0" laneChangedTo="0"/>
        <edge id="-1119680146" sampledSeconds="72.58" traveltime="11.40" overlapTraveltime="12.10" density="0.68" laneDensity="0.68" occupancy="0.32" waitingTime="0.00" timeLoss="7.89" speed="7.71" speedRelative="0.93" departed="0" arrived="0" entered="6" left="6" laneChangedFrom="0" laneChangedTo="0"/>