<?xml version="1.0" encoding="UTF-8"?>

<!-- generated on 2023-07-13 11:32:40 by Eclipse SUMO sumo Version 1.18.0
<configuration xmlns:xsi="http://www.w3.org/2001/XMLSchema-instance" xsi:noNamespaceSchemaLocation="http://sumo.dlr.de/xsd/sumoConfiguration.xsd">

    <input>
        <net-file value="/Users/amanzer/Desktop/memo/sumo-simulation/ixelles/ixelles.net.xml"/>
        <route-files value="/Users/amanzer/Desktop/memo/sumo-simulation/ixelles/ixelles.routes.xml"/>
        <additional-files value="/Users/amanzer/Desktop/memo/sumo-simulation/ixelles/ixelles.poly.xml"/>
    </input>

    <output>
        <tripinfo-output value="tripinfo.xml"/>
        <edgedata-output value="edgeData.xml"/>
    </output>

</configuration>
-->

<tripinfos xmlns:xsi="http://www.w3.org/2001/XMLSchema-instance" xsi:noNamespaceSchemaLocation="http://sumo.dlr.de/xsd/tripinfo_file.xsd">
    <tripinfo id="126" depart="63.00" departLane="-147764415#2_0" departPos="5.10" departSpeed="0.00" departDelay="0.00" arrival="122.00" arrivalLane="147764368#2_0" arrivalPos="0.20" arrivalSpeed="7.40" duration="59.00" routeLength="386.03" waitingTime="0.00" waitingCount="0" stopTime="0.00" timeLoss="8.84" rerouteNo="0" devices="tripinfo_126" vType="DEFAULT_VEHTYPE" speedFactor="0.94" vaporized=""/>
    <tripinfo id="12" depart="6.00" departLane="8380039#1_0" departPos="5.10" departSpeed="0.00" departDelay="0.00" arrival="126.00" arrivalLane="123929563#2_1" arrivalPos="0.20" arrivalSpeed="8.07" duration="120.00" routeLength="930.89" waitingTime="0.00" waitingCount="0" stopTime="0.00" timeLoss="12.53" rerouteNo="0" devices="tripinfo_12" vType="DEFAULT_VEHTYPE" speedFactor="1.05" vaporized=""/>
    <tripinfo id="37" depart="19.00" departLane="30799969#0_0" departPos="5.10" departSpeed="0.00" departDelay="0.50" arrival="132.00" arrivalLane="141632618#0_0" arrivalPos="0.20" arrivalSpeed="7.10" duration="113.00" routeLength="790.95" waitingTime="0.00" waitingCount="0" stopTime="0.00" timeLoss="13.87" rerouteNo="0" devices="tripinfo_37" vType="DEFAULT_VEHTYPE" speedFactor="0.97" vaporized=""/>
    <tripinfo id="188" depart="94.00" departLane="31233132#0_0" departPos="5.10" departSpeed="0.00" departDelay="0.00" arrival="135.00" arrivalLane="117228491#0_0" arrivalPos="0.20" arrivalSpeed="4.28" duration="41.00" routeLength="311.11" waitingTime="0.00" waitingCount="0" stopTime="0.00" timeLoss="6.26" rerouteNo="0" devices="tripinfo_188" vType="DEFAULT_VEHTYPE" speedFactor="1.08" vaporized=""/>
    <tripinfo id="130" depart="65.00" departLane="62020115#2_0" departPos="5.10" departSpeed="0.00" departDelay="0.00" arrival="140.00" arrivalLane="62020112#0_0" arrivalPos="0.20" arrivalSpeed="7.98" duration="75.00" routeLength="281.45" waitingTime="35.00" waitingCount="2" stopTime="0.00" timeLoss="53.53" rerouteNo="0" devices="tripinfo_130" vType="DEFAULT_VEHTYPE" speedFactor="1.02" vaporized=""/>
    <tripinfo id="20" depart="10.00" departLane="35378109#2_0" departPos="3.57" departSpeed="0.00" departDelay="0.00" arrival="151.00" arrivalLane="-141632618#2_0" arrivalPos="3.71" arrivalSpeed="7.36" duration="141.00" routeLength="1074.47" waitingTime="0.00" waitingCount="0" stopTime="0.00" timeLoss="13.98" rerouteNo="0" devices="tripinfo_20" vType="DEFAULT_VEHTYPE" speedFactor="1.02" vaporized=""/>
    <tripinfo id="90" depart="45.00" departLane="395800498#1_0" departPos="0.20" departSpeed="0.00" departDelay="0.00" arrival="162.00" arrivalLane="31508062#1_0" arrivalPos="80.91" arrivalSpeed="7.23" duration="117.00" routeLength="942.46" waitingTime="2.00" waitingCount="1" stopTime="0.00" timeLoss="18.36" rerouteNo="0" devices="tripinfo_90" vType="DEFAULT_VEHTYPE" speedFactor="0.98" vaporized=""/>
    <tripinfo id="15" depart="8.00" departLane="463468245#0_0" departPos="5.10" departSpeed="0.00" departDelay="0.50" arrival="164.00" arrivalLane="39625951#2_0" arrivalPos="0.20" arrivalSpeed="7.44" duration="156.00" routeLength="1052.60" waitingTime="0.00" waitingCount="0" stopTime="0.00" timeLoss="17.51" rerouteNo="0" devices="tripinfo_15" vType="DEFAULT_VEHTYPE" speedFactor="0.93" vaporized=""/>
    <tripinfo id="57" depart="29.00" departLane="715017599#3_0" departPos="0.20" departSpeed="0.00" departDelay="0.50" arrival="164.00" arrivalLane="589841814#0_0" arrivalPos="102.25" arrivalSpeed="12.80" duration="135.00" routeLength="1185.99" waitingTime="0.00" waitingCount="0" stopTime="0.00" timeLoss="17.04" rerouteNo="0" devices="tripinfo_57" vType="DEFAULT_VEHTYPE" speedFactor="1.00" vaporized=""/>
    <tripinfo id="58" depart="29.00" departLane="1062939422#1_0" departPos="0.20" departSpeed="0.00" departDelay="0.00" arrival="179.00" arrivalLane="307372342#3_0" arrivalPos="0.20" arrivalSpeed="6.41" duration="150.00" routeLength="968.86" waitingTime="0.00" waitingCount="0" stopTime="0.00" timeLoss="18.76" rerouteNo="0" devices="tripinfo_58" vType="DEFAULT_VEHTYPE" speedFactor="0.90" vaporized=""/>
    <tripinfo id="18" depart="9.00" departLane="47999872_0" departPos="5.10" departSpeed="0.00" departDelay="0.00" arrival="187.00" arrivalLane="30324793#0_0" arrivalPos="26.53" arrivalSpeed="7.11" duration="178.00" routeLength="1157.20" waitingTime="5.00" waitingCount="1" stopTime="0.00" timeLoss="27.29" rerouteNo="0" devices="tripinfo_18" vType="DEFAULT_VEHTYPE" speedFactor="0.94" vaporized=""/>
    <tripinfo id="62" depart="31.00" departLane="-100612596#0_0" departPos="5.10" departSpeed="0.00" departDelay="0.00" arrival="190.00" arrivalLane="1153265597#0_0" arrivalPos="0.93" arrivalSpeed="5.32" duration="159.00" routeLength="1384.54" waitingTime="4.00" waitingCount="1" stopTime="0.00" timeLoss="22.58" rerouteNo="0" devices="tripinfo_62" vType="DEFAULT_VEHTYPE" speedFactor="0.97" vaporized=""/>
    <tripinfo id="103" depart="52.00" departLane="14346827#0_0" departPos="5.10" departSpeed="0.00" departDelay="0.50" arrival="190.00" arrivalLane="-144313995#2_0" arrivalPos="0.20" arrivalSpeed="6.27" duration="138.00" routeLength="922.72" waitingTime="0.00" waitingCount="0" stopTime="0.00" timeLoss="14.42" rerouteNo="0" devices="tripinfo_103" vType="DEFAULT_VEHTYPE" speedFactor="0.91" vaporized=""/>
    <tripinfo id="21" depart="11.00" departLane="-509660643#1_0" departPos="1.83" departSpeed="0.00" departDelay="0.50" arrival="194.00" arrivalLane="101104654_0" arrivalPos="71.18" arrivalSpeed="7.76" duration="183.00" routeLength="1375.09" waitingTime="0.00" waitingCount="0" stopTime="0.00" timeLoss="18.22" rerouteNo="0" devices="tripinfo_21" vType="DEFAULT_VEHTYPE" speedFactor="1.01" vaporized=""/>
    <tripinfo id="43" depart="22.00" departLane="97680150#4_0" departPos="0.20" departSpeed="0.00" departDelay="0.50" arrival="197.00" arrivalLane="183454203#3_0" arrivalPos="0.20" arrivalSpeed="15.08" duration="175.00" routeLength="1959.13" waitingTime="0.00" waitingCount="0" stopTime="0.00" timeLoss="21.34" rerouteNo="0" devices="tripinfo_43" vType="DEFAULT_VEHTYPE" speedFactor="1.09" vaporized=""/>
    <tripinfo id="174" depart="87.00" departLane="30737919#2_0" departPos="0.20" departSpeed="0.00" departDelay="0.00" arrival="201.00" arrivalLane="14346837_0" arrivalPos="0.97" arrivalSpeed="3.18" duration="114.00" routeLength="826.04" waitingTime="0.00" waitingCount="0" stopTime="0.00" timeLoss="13.05" rerouteNo="0" devices="tripinfo_174" vType="DEFAULT_VEHTYPE" speedFactor="1.00" vaporized=""/>
    <tripinfo id="73" depart="37.00" departLane="23084263#1_0" departPos="5.10" departSpeed="0.00" departDelay="0.50" arrival="205.00" arrivalLane="39642340#0_0" arrivalPos="0.20" arrivalSpeed="7.48" duration="168.00" routeLength="1874.08" waitingTime="0.00" waitingCount="0" stopTime="0.00" timeLoss="14.75" rerouteNo="0" devices="tripinfo_73" vType="DEFAULT_VEHTYPE" speedFactor="1.02" vaporized=""/>
    <tripinfo id="101" depart="51.00" departLane="524150320#1_0" departPos="3.26" departSpeed="0.00" departDelay="0.50" arrival="205.00" arrivalLane="-329363827#1_0" arrivalPos="47.81" arrivalSpeed="8.65" duration="154.00" routeLength="1173.72" waitingTime="0.00" waitingCount="0" stopTime="0.00" timeLoss="16.61" rerouteNo="0" devices="tripinfo_101" vType="DEFAULT_VEHTYPE" speedFactor="1.06" vaporized=""/>
    <tripinfo id="10" depart="5.00" departLane="452101329#0_0" departPos="0.35" departSpeed="0.00" departDelay="0.00" arrival="206.00" arrivalLane="339603045#5_0" arrivalPos="0.25" arrivalSpeed="14.39" duration="201.00" routeLength="2050.95" waitingTime="0.00" waitingCount="0" stopTime="0.00" timeLoss="17.83" rerouteNo="0" devices="tripinfo_10" vType="DEFAULT_VEHTYPE" speedFactor="1.09" vaporized=""/>
    <tripinfo id="106" depart="53.00" departLane="14686743#1_0" departPos="0.20" departSpeed="0.00" departDelay="0.00" arrival="206.00" arrivalLane="14393290#1_0" arrivalPos="3.67" arrivalSpeed="8.81" duration="153.00" routeLength="1132.25" waitingTime="7.00" waitingCount="1" stopTime="0.00" timeLoss="23.39" rerouteNo="0" devices="tripinfo_106" vType="DEFAULT_VEHTYPE" speedFactor="1.06" vaporized=""/>
    <tripinfo id="172" depart="86.00" departLane="1157536729#1_0" departPos="0.20" departSpeed="0.00" departDelay="0.00" arrival="208.00" arrivalLane="549347962#1_0" arrivalPos="0.20" arrivalSpeed="8.31" duration="122.00" routeLength="921.84" waitingTime="0.00" waitingCount="0" stopTime="0.00" timeLoss="14.57" rerouteNo="0" devices="tripinfo_172" vType="DEFAULT_VEHTYPE" speedFactor="1.05" vaporized=""/>
    <tripinfo id="65" depart="33.00" departLane="1083809476#2_0" departPos="5.10" departSpeed="0.00" departDelay="0.50" arrival="209.00" arrivalLane="-14375121#1_0" arrivalPos="0.20" arrivalSpeed="7.85" duration="176.00" routeLength="1335.88" waitingTime="0.00" waitingCount="0" stopTime="0.00" timeLoss="17.55" rerouteNo="0" devices="tripinfo_65" vType="DEFAULT_VEHTYPE" speedFactor="1.02" vaporized=""/>
    <tripinfo id="33" depart="17.00" departLane="-510491860#1_0" departPos="5.10" departSpeed="0.00" departDelay="0.50" arrival="210.00" arrivalLane="-13765123#0_0" arrivalPos="0.27" arrivalSpeed="9.13" duration="193.00" routeLength="1533.74" waitingTime="6.00" waitingCount="2" stopTime="0.00" timeLoss="34.29" rerouteNo="0" devices="tripinfo_33" vType="DEFAULT_VEHTYPE" speedFactor="1.17" vaporized=""/>
    <tripinfo id="391" depart="196.00" departLane="36801001#2_0" departPos="5.10" departSpeed="0.00" departDelay="0.50" arrival="213.00" arrivalLane="183370113#1_0" arrivalPos="0.20" arrivalSpeed="8.33" duration="17.00" routeLength="145.79" waitingTime="0.00" waitingCount="0" stopTime="0.00" timeLoss="6.12" rerouteNo="0" devices="tripinfo_391" vType="DEFAULT_VEHTYPE" speedFactor="1.10" vaporized=""/>
    <tripinfo id="11" depart="6.00" departLane="124862962_0" departPos="5.10" departSpeed="0.00" departDelay="0.50" arrival="215.00" arrivalLane="-31411680#2_0" arrivalPos="24.22" arrivalSpeed="8.33" duration="209.00" routeLength="1676.93" waitingTime="1.00" waitingCount="1" stopTime="0.00" timeLoss="27.36" rerouteNo="0" devices="tripinfo_11" vType="DEFAULT_VEHTYPE" speedFactor="1.03" vaporized=""/>
    <tripinfo id="240" depart="120.00" departLane="13767958#2_0" departPos="0.13" departSpeed="0.00" departDelay="0.00" arrival="215.00" arrivalLane="-1078796766#2_0" arrivalPos="83.27" arrivalSpeed="8.25" duration="95.00" routeLength="750.01" waitingTime="0.00" waitingCount="0" stopTime="0.00" timeLoss="12.33" rerouteNo="0" devices="tripinfo_240" vType="DEFAULT_VEHTYPE" speedFactor="0.99" vaporized=""/>
    <tripinfo id="339" depart="170.00" departLane="-4306846#2_0" departPos="1.64" departSpeed="0.00" departDelay="0.50" arrival="219.00" arrivalLane="-4318237#1_0" arrivalPos="0.25" arrivalSpeed="7.92" duration="49.00" routeLength="342.99" waitingTime="0.00" waitingCount="0" stopTime="0.00" timeLoss="6.80" rerouteNo="0" devices="tripinfo_339" vType="DEFAULT_VEHTYPE" speedFactor="1.00" vaporized=""/>
    <tripinfo id="340" depart="170.00" departLane="308431184#1_0" departPos="0.20" departSpeed="0.00" departDelay="0.00" arrival="222.00" arrivalLane="-31431343#0_0" arrivalPos="0.20" arrivalSpeed="7.27" duration="52.00" routeLength="335.83" waitingTime="0.00" waitingCount="0" stopTime="0.00" timeLoss="6.47" rerouteNo="0" devices="tripinfo_340" vType="DEFAULT_VEHTYPE" speedFactor="0.90" vaporized=""/>
    <tripinfo id="219" depart="110.00" departLane="147645130#2_0" departPos="5.10" departSpeed="0.00" departDelay="0.50" arrival="223.00" arrivalLane="4441059#0_0" arrivalPos="276.42" arrivalSpeed="12.67" duration="113.00" routeLength="1155.84" waitingTime="3.00" waitingCount="2" stopTime="0.00" timeLoss="20.10" rerouteNo="0" devices="tripinfo_219" vType="DEFAULT_VEHTYPE" speedFactor="0.98" vaporized=""/>
    <tripinfo id="133" depart="67.00" departLane="292267943#2_0" departPos="5.10" departSpeed="0.00" departDelay="0.50" arrival="224.00" arrivalLane="931367568#1_0" arrivalPos="83.15" arrivalSpeed="9.36" duration="157.00" routeLength="1299.66" waitingTime="0.00" waitingCount="0" stopTime="0.00" timeLoss="20.66" rerouteNo="0" devices="tripinfo_133" vType="DEFAULT_VEHTYPE" speedFactor="1.15" vaporized=""/>
    <tripinfo id="285" depart="143.00" departLane="35830442#1_0" departPos="5.10" departSpeed="0.00" departDelay="0.50" arrival="232.00" arrivalLane="14453613#1_0" arrivalPos="14.20" arrivalSpeed="6.57" duration="89.00" routeLength="518.84" waitingTime="0.00" waitingCount="0" stopTime="0.00" timeLoss="13.32" rerouteNo="0" devices="tripinfo_285" vType="DEFAULT_VEHTYPE" speedFactor="0.85" vaporized=""/>
    <tripinfo id="142" depart="71.00" departLane="159636084#3_0" departPos="0.20" departSpeed="0.00" departDelay="0.00" arrival="235.00" arrivalLane="690893939#0_1" arrivalPos="25.24" arrivalSpeed="15.82" duration="164.00" routeLength="2242.90" waitingTime="1.00" waitingCount="1" stopTime="0.00" timeLoss="23.11" rerouteNo="0" devices="tripinfo_142" vType="DEFAULT_VEHTYPE" speedFactor="1.23" vaporized=""/>
    <tripinfo id="164" depart="85.00" departLane="4441059#1_0" departPos="5.10" departSpeed="0.00" departDelay="3.00" arrival="240.00" arrivalLane="548457220#2_1" arrivalPos="0.20" arrivalSpeed="9.22" duration="155.00" routeLength="1855.91" waitingTime="2.00" waitingCount="1" stopTime="0.00" timeLoss="26.76" rerouteNo="0" devices="tripinfo_164" vType="DEFAULT_VEHTYPE" speedFactor="1.18" vaporized=""/>
    <tripinfo id="114" depart="57.00" departLane="-31431101#1_0" departPos="5.10" departSpeed="0.00" departDelay="0.00" arrival="242.00" arrivalLane="8382354#2_0" arrivalPos="15.03" arrivalSpeed="8.64" duration="185.00" routeLength="1443.28" waitingTime="0.00" waitingCount="0" stopTime="0.00" timeLoss="23.37" rerouteNo="0" devices="tripinfo_114" vType="DEFAULT_VEHTYPE" speedFactor="1.06" vaporized=""/>
    <tripinfo id="14" depart="7.00" departLane="520534105#2_0" departPos="0.20" departSpeed="0.00" departDelay="0.00" arrival="247.00" arrivalLane="29023871#10_0" arrivalPos="84.05" arrivalSpeed="8.16" duration="240.00" routeLength="1696.03" waitingTime="1.00" waitingCount="1" stopTime="0.00" timeLoss="32.36" rerouteNo="0" devices="tripinfo_14" vType="DEFAULT_VEHTYPE" speedFactor="0.99" vaporized=""/>
    <tripinfo id="35" depart="18.00" departLane="-4309941#2_0" departPos="5.10" departSpeed="0.00" departDelay="0.50" arrival="249.00" arrivalLane="8240917#5_0" arrivalPos="0.20" arrivalSpeed="8.08" duration="231.00" routeLength="2160.93" waitingTime="4.00" waitingCount="1" stopTime="0.00" timeLoss="30.50" rerouteNo="0" devices="tripinfo_35" vType="DEFAULT_VEHTYPE" speedFactor="0.99" vaporized=""/>
    <tripinfo id="86" depart="43.00" departLane="150208397#1_0" departPos="0.20" departSpeed="0.00" departDelay="0.00" arrival="250.00" arrivalLane="4308723#8_0" arrivalPos="160.24" arrivalSpeed="7.66" duration="207.00" routeLength="1762.67" waitingTime="1.00" waitingCount="1" stopTime="0.00" timeLoss="25.15" rerouteNo="0" devices="tripinfo_86" vType="DEFAULT_VEHTYPE" speedFactor="1.02" vaporized=""/>
    <tripinfo id="213" depart="107.00" departLane="30799974#0_0" departPos="5.10" departSpeed="0.00" departDelay="0.50" arrival="253.00" arrivalLane="-1077835594#1_0" arrivalPos="5.02" arrivalSpeed="9.04" duration="146.00" routeLength="1215.21" waitingTime="0.00" waitingCount="0" stopTime="0.00" timeLoss="13.53" rerouteNo="0" devices="tripinfo_213" vType="DEFAULT_VEHTYPE" speedFactor="1.11" vaporized=""/>
    <tripinfo id="27" depart="14.00" departLane="30766027_0" departPos="5.10" departSpeed="0.00" departDelay="0.50" arrival="254.00" arrivalLane="291878380#3_0" arrivalPos="59.89" arrivalSpeed="7.38" duration="240.00" routeLength="2217.79" waitingTime="0.00" waitingCount="0" stopTime="0.00" timeLoss="22.41" rerouteNo="0" devices="tripinfo_27" vType="DEFAULT_VEHTYPE" speedFactor="0.95" vaporized=""/>
    <tripinfo id="185" depart="93.00" departLane="22794988#0_0" departPos="5.01" departSpeed="0.00" departDelay="0.50" arrival="254.00" arrivalLane="37192892_0" arrivalPos="20.19" arrivalSpeed="6.67" duration="161.00" routeLength="1043.47" waitingTime="4.00" waitingCount="1" stopTime="0.00" timeLoss="25.93" rerouteNo="0" devices="tripinfo_185" vType="DEFAULT_VEHTYPE" speedFactor="0.92" vaporized=""/>
    <tripinfo id="283" depart="142.00" departLane="-23084282_0" departPos="5.10" departSpeed="0.00" departDelay="0.50" arrival="254.00" arrivalLane="8382354#2_0" arrivalPos="15.03" arrivalSpeed="8.11" duration="112.00" routeLength="836.99" waitingTime="0.00" waitingCount="0" stopTime="0.00" timeLoss="15.43" rerouteNo="0" devices="tripinfo_283" vType="DEFAULT_VEHTYPE" speedFactor="1.05" vaporized=""/>
    <tripinfo id="129" depart="65.00" departLane="-8250521#2_0" departPos="0.20" departSpeed="0.00" departDelay="0.50" arrival="256.00" arrivalLane="8140188#6_0" arrivalPos="101.26" arrivalSpeed="7.74" duration="191.00" routeLength="1726.54" waitingTime="1.00" waitingCount="1" stopTime="0.00" timeLoss="23.58" rerouteNo="0" devices="tripinfo_129" vType="DEFAULT_VEHTYPE" speedFactor="1.03" vaporized=""/>
    <tripinfo id="88" depart="44.00" departLane="-220267104#0_0" departPos="0.58" departSpeed="0.00" departDelay="0.00" arrival="257.00" arrivalLane="14442433#2_0" arrivalPos="49.42" arrivalSpeed="9.54" duration="213.00" routeLength="2226.73" waitingTime="0.00" waitingCount="0" stopTime="0.00" timeLoss="26.93" rerouteNo="0" devices="tripinfo_88" vType="DEFAULT_VEHTYPE" speedFactor="1.15" vaporized=""/>
    <tripinfo id="230" depart="115.00" departLane="-150213180#1_0" departPos="0.20" departSpeed="0.00" departDelay="0.00" arrival="257.00" arrivalLane="1001702450#0_2" arrivalPos="40.20" arrivalSpeed="13.13" duration="142.00" routeLength="1707.34" waitingTime="0.00" waitingCount="0" stopTime="0.00" timeLoss="16.26" rerouteNo="0" devices="tripinfo_230" vType="DEFAULT_VEHTYPE" speedFactor="1.00" vaporized=""/>
    <tripinfo id="4" depart="2.00" departLane="14373057#0_0" departPos="0.20" departSpeed="0.00" departDelay="0.00" arrival="262.00" arrivalLane="-13764249#2_0" arrivalPos="112.36" arrivalSpeed="7.74" duration="260.00" routeLength="1974.80" waitingTime="0.00" waitingCount="0" stopTime="0.00" timeLoss="36.66" rerouteNo="0" devices="tripinfo_4" vType="DEFAULT_VEHTYPE" speedFactor="1.03" vaporized=""/>
    <tripinfo id="222" depart="111.00" departLane="636940958#2_0" departPos="0.20" departSpeed="0.00" departDelay="0.00" arrival="268.00" arrivalLane="30093368#3_0" arrivalPos="0.20" arrivalSpeed="7.58" duration="157.00" routeLength="1166.38" waitingTime="0.00" waitingCount="0" stopTime="0.00" timeLoss="15.62" rerouteNo="0" devices="tripinfo_222" vType="DEFAULT_VEHTYPE" speedFactor="1.00" vaporized=""/>
    <tripinfo id="288" depart="144.00" departLane="22794831#1_0" departPos="5.10" departSpeed="0.00" departDelay="0.00" arrival="269.00" arrivalLane="155470483#0_0" arrivalPos="4.45" arrivalSpeed="7.29" duration="125.00" routeLength="1148.38" waitingTime="3.00" waitingCount="1" stopTime="0.00" timeLoss="19.61" rerouteNo="0" devices="tripinfo_288" vType="DEFAULT_VEHTYPE" speedFactor="1.21" vaporized=""/>
    <tripinfo id="85" depart="43.00" departLane="8144191#1_0" departPos="5.10" departSpeed="0.00" departDelay="0.50" arrival="271.00" arrivalLane="240549302#2_0" arrivalPos="6.37" arrivalSpeed="8.01" duration="228.00" routeLength="2355.46" waitingTime="0.00" waitingCount="0" stopTime="0.00" timeLoss="19.31" rerouteNo="0" devices="tripinfo_85" vType="DEFAULT_VEHTYPE" speedFactor="1.00" vaporized=""/>
    <tripinfo id="141" depart="71.00" departLane="307014272#1_0" departPos="5.10" departSpeed="0.00" departDelay="0.50" arrival="272.00" arrivalLane="-829968896#0_0" arrivalPos="4.07" arrivalSpeed="7.45" duration="201.00" routeLength="1549.65" waitingTime="0.00" waitingCount="0" stopTime="0.00" timeLoss="20.47" rerouteNo="0" devices="tripinfo_141" vType="DEFAULT_VEHTYPE" speedFactor="1.04" vaporized=""/>
    <tripinfo id="1" depart="1.00" departLane="-8384930#0_0" departPos="0.20" departSpeed="0.00" departDelay="0.50" arrival="273.00" arrivalLane="-490979817#0_0" arrivalPos="16.19" arrivalSpeed="12.25" duration="272.00" routeLength="2811.21" waitingTime="3.00" waitingCount="1" stopTime="0.00" timeLoss="26.91" rerouteNo="0" devices="tripinfo_1" vType="DEFAULT_VEHTYPE" speedFactor="0.94" vaporized=""/>
    <tripinfo id="22" depart="11.00" departLane="-150275986#2_0" departPos="5.10" departSpeed="0.00" departDelay="0.00" arrival="274.00" arrivalLane="-532686064#1_0" arrivalPos="0.25" arrivalSpeed="4.71" duration="263.00" routeLength="1841.05" waitingTime="4.00" waitingCount="1" stopTime="0.00" timeLoss="33.50" rerouteNo="0" devices="tripinfo_22" vType="DEFAULT_VEHTYPE" speedFactor="0.97" vaporized=""/>
    <tripinfo id="311" depart="156.00" departLane="-40492438#0_0" departPos="5.10" departSpeed="0.00" departDelay="0.50" arrival="274.00" arrivalLane="-240549302#3_0" arrivalPos="1.02" arrivalSpeed="8.39" duration="118.00" routeLength="901.30" waitingTime="0.00" waitingCount="0" stopTime="0.00" timeLoss="15.95" rerouteNo="0" devices="tripinfo_311" vType="DEFAULT_VEHTYPE" speedFactor="1.07" vaporized=""/>
    <tripinfo id="46" depart="23.00" departLane="4318229#2_0" departPos="0.20" departSpeed="0.00" departDelay="0.00" arrival="276.00" arrivalLane="14375116#2_0" arrivalPos="1.52" arrivalSpeed="7.83" duration="253.00" routeLength="2497.20" waitingTime="7.00" waitingCount="1" stopTime="0.00" timeLoss="41.85" rerouteNo="0" devices="tripinfo_46" vType="DEFAULT_VEHTYPE" speedFactor="1.09" vaporized=""/>
    <tripinfo id="84" depart="42.00" departLane="-4426064#0_0" departPos="5.10" departSpeed="0.00" departDelay="0.00" arrival="279.00" arrivalLane="-27861270#3_0" arrivalPos="0.20" arrivalSpeed="8.03" duration="237.00" routeLength="1812.97" waitingTime="0.00" waitingCount="0" stopTime="0.00" timeLoss="24.68" rerouteNo="0" devices="tripinfo_84" vType="DEFAULT_VEHTYPE" speedFactor="1.03" vaporized=""/>
    <tripinfo id="260" depart="130.00" departLane="998042136#1_0" departPos="5.10" departSpeed="0.00" departDelay="0.00" arrival="283.00" arrivalLane="13492303#1_0" arrivalPos="54.49" arrivalSpeed="4.90" duration="153.00" routeLength="1306.72" waitingTime="1.00" waitingCount="1" stopTime="0.00" timeLoss="18.11" rerouteNo="0" devices="tripinfo_260" vType="DEFAULT_VEHTYPE" speedFactor="1.11" vaporized=""/>
    <tripinfo id="9" depart="5.00" departLane="4690593#0_0" departPos="0.20" departSpeed="0.00" departDelay="0.50" arrival="285.00" arrivalLane="-1078802248#2_0" arrivalPos="18.45" arrivalSpeed="6.05" duration="280.00" routeLength="2405.33" waitingTime="24.00" waitingCount="1" stopTime="0.00" timeLoss="52.39" rerouteNo="0" devices="tripinfo_9" vType="DEFAULT_VEHTYPE" speedFactor="0.86" vaporized=""/>
    <tripinfo id="245" depart="123.00" departLane="-4730659#4_0" departPos="5.10" departSpeed="0.00" departDelay="0.50" arrival="289.00" arrivalLane="-4730929#0_0" arrivalPos="4.66" arrivalSpeed="6.98" duration="166.00" routeLength="1095.25" waitingTime="0.00" waitingCount="0" stopTime="0.00" timeLoss="19.57" rerouteNo="0" devices="tripinfo_245" vType="DEFAULT_VEHTYPE" speedFactor="0.91" vaporized=""/>
    <tripinfo id="355" depart="178.00" departLane="328023152#3_0" departPos="0.20" departSpeed="0.00" departDelay="0.50" arrival="291.00" arrivalLane="34497369#3_1" arrivalPos="0.20" arrivalSpeed="12.63" duration="113.00" routeLength="960.03" waitingTime="4.00" waitingCount="1" stopTime="0.00" timeLoss="23.19" rerouteNo="0" devices="tripinfo_355" vType="DEFAULT_VEHTYPE" speedFactor="0.95" vaporized=""/>
    <tripinfo id="95" depart="48.00" departLane="14373057#0_0" departPos="0.20" departSpeed="0.00" departDelay="0.50" arrival="292.00" arrivalLane="-902038441_0" arrivalPos="156.00" arrivalSpeed="7.65" duration="244.00" routeLength="1936.92" waitingTime="0.00" waitingCount="0" stopTime="0.00" timeLoss="23.64" rerouteNo="0" devices="tripinfo_95" vType="DEFAULT_VEHTYPE" speedFactor="1.02" vaporized=""/>
    <tripinfo id="336" depart="168.00" departLane="939752211_0" departPos="5.10" departSpeed="0.00" departDelay="0.00" arrival="297.00" arrivalLane="1083809476#1_0" arrivalPos="6.50" arrivalSpeed="8.17" duration="129.00" routeLength="1304.92" waitingTime="1.00" waitingCount="1" stopTime="0.00" timeLoss="32.56" rerouteNo="0" devices="tripinfo_336" vType="DEFAULT_VEHTYPE" speedFactor="1.01" vaporized=""/>
    <tripinfo id="105" depart="53.00" departLane="-8250521#2_0" departPos="0.20" departSpeed="0.00" departDelay="0.50" arrival="298.00" arrivalLane="4308723#1_0" arrivalPos="0.20" arrivalSpeed="7.62" duration="245.00" routeLength="2654.04" waitingTime="6.00" waitingCount="2" stopTime="0.00" timeLoss="48.14" rerouteNo="0" devices="tripinfo_105" vType="DEFAULT_VEHTYPE" speedFactor="1.10" vaporized=""/>
    <tripinfo id="225" depart="113.00" departLane="654745622#6_0" departPos="0.28" departSpeed="0.00" departDelay="0.50" arrival="300.00" arrivalLane="40458438#1_0" arrivalPos="150.76" arrivalSpeed="8.12" duration="187.00" routeLength="2246.31" waitingTime="0.00" waitingCount="0" stopTime="0.00" timeLoss="17.09" rerouteNo="0" devices="tripinfo_225" vType="DEFAULT_VEHTYPE" speedFactor="1.09" vaporized=""/>
    <tripinfo id="353" depart="177.00" departLane="40493385#0_0" departPos="5.10" departSpeed="0.00" departDelay="0.50" arrival="309.00" arrivalLane="239923867#1_0" arrivalPos="0.27" arrivalSpeed="5.93" duration="132.00" routeLength="832.10" waitingTime="0.00" waitingCount="0" stopTime="0.00" timeLoss="15.38" rerouteNo="0" devices="tripinfo_353" vType="DEFAULT_VEHTYPE" speedFactor="0.86" vaporized=""/>
    <tripinfo id="64" depart="32.00" departLane="62018670#2_0" departPos="0.20" departSpeed="0.00" departDelay="0.00" arrival="310.00" arrivalLane="4906015#0_0" arrivalPos="14.39" arrivalSpeed="8.76" duration="278.00" routeLength="3533.35" waitingTime="4.00" waitingCount="2" stopTime="0.00" timeLoss="30.34" rerouteNo="0" devices="tripinfo_64" vType="DEFAULT_VEHTYPE" speedFactor="1.12" vaporized=""/>
    <tripinfo id="53" depart="27.00" departLane="-231948988#0_0" departPos="1.04" departSpeed="0.00" departDelay="0.50" arrival="312.00" arrivalLane="14453566#0_0" arrivalPos="94.04" arrivalSpeed="7.18" duration="285.00" routeLength="2106.08" waitingTime="3.00" waitingCount="1" stopTime="0.00" timeLoss="34.40" rerouteNo="0" devices="tripinfo_53" vType="DEFAULT_VEHTYPE" speedFactor="1.02" vaporized=""/>
    <tripinfo id="115" depart="58.00" departLane="-150275988#1_0" departPos="3.16" departSpeed="0.00" departDelay="0.50" arrival="318.00" arrivalLane="-401857842#1_0" arrivalPos="0.20" arrivalSpeed="5.96" duration="260.00" routeLength="2556.02" waitingTime="0.00" waitingCount="0" stopTime="0.00" timeLoss="24.80" rerouteNo="0" devices="tripinfo_115" vType="DEFAULT_VEHTYPE" speedFactor="0.96" vaporized=""/>
    <tripinfo id="16" depart="8.00" departLane="226693562#0_0" departPos="0.20" departSpeed="0.00" departDelay="0.00" arrival="319.00" arrivalLane="842329004#0_0" arrivalPos="50.17" arrivalSpeed="6.84" duration="311.00" routeLength="2146.86" waitingTime="0.00" waitingCount="0" stopTime="0.00" timeLoss="32.64" rerouteNo="0" devices="tripinfo_16" vType="DEFAULT_VEHTYPE" speedFactor="0.88" vaporized=""/>
    <tripinfo id="74" depart="37.00" departLane="-40798328_0" departPos="5.10" departSpeed="0.00" departDelay="0.00" arrival="323.00" arrivalLane="1098324355#1_0" arrivalPos="0.20" arrivalSpeed="12.69" duration="286.00" routeLength="2432.34" waitingTime="0.00" waitingCount="0" stopTime="0.00" timeLoss="30.45" rerouteNo="0" devices="tripinfo_74" vType="DEFAULT_VEHTYPE" speedFactor="0.97" vaporized=""/>
    <tripinfo id="143" depart="72.00" departLane="510722538_0" departPos="5.00" departSpeed="0.00" departDelay="0.50" arrival="324.00" arrivalLane="-180151710#0_0" arrivalPos="27.68" arrivalSpeed="7.64" duration="252.00" routeLength="2782.57" waitingTime="0.00" waitingCount="0" stopTime="0.00" timeLoss="26.45" rerouteNo="0" devices="tripinfo_143" vType="DEFAULT_VEHTYPE" speedFactor="1.01" vaporized=""/>
    <tripinfo id="13" depart="7.00" departLane="-180151710#0_0" departPos="5.10" departSpeed="0.00" departDelay="0.50" arrival="328.00" arrivalLane="-220267105#3_0" arrivalPos="29.12" arrivalSpeed="8.15" duration="321.00" routeLength="2668.21" waitingTime="0.00" waitingCount="0" stopTime="0.00" timeLoss="32.47" rerouteNo="0" devices="tripinfo_13" vType="DEFAULT_VEHTYPE" speedFactor="1.12" vaporized=""/>
    <tripinfo id="76" depart="38.00" departLane="14453960#5_0" departPos="0.20" departSpeed="0.00" departDelay="0.00" arrival="331.00" arrivalLane="19528704#3_0" arrivalPos="37.50" arrivalSpeed="8.12" duration="293.00" routeLength="2288.42" waitingTime="1.00" waitingCount="1" stopTime="0.00" timeLoss="30.64" rerouteNo="0" devices="tripinfo_76" vType="DEFAULT_VEHTYPE" speedFactor="1.06" vaporized=""/>