<?xml version="1.0" encoding="UTF-8"?>

<!-- generated on 2023-07-14 01:16:44 by Eclipse SUMO sumo Version 1.18.0
<configuration xmlns:xsi="http://www.w3.org/2001/XMLSchema-instance" xsi:noNamespaceSchemaLocation="http://sumo.dlr.de/xsd/sumoConfiguration.xsd">

    <input>
        <net-file value="ixelles.net.xml"/>
        <route-files value="exp2_fig.routes.xml"/>
        <additional-files value="rerouter.add.xml"/>
    </input>

    <output>
        <fcd-output value="fcd3.xml"/>
    </output>

    <processing>
        <ignore-route-errors value="true"/>
    </processing>

</configuration>
-->

<fcd-export xmlns:xsi="http://www.w3.org/2001/XMLSchema-instance" xsi:noNamespaceSchemaLocation="http://sumo.dlr.de/xsd/fcd_file.xsd">
    <timestep time="0.00"/>
    <timestep time="1.00"/>
    <timestep time="2.00"/>
    <timestep time="3.00"/>
    <timestep time="4.00"/>
    <timestep time="5.00"/>
    <timestep time="6.00"/>
    <timestep time="7.00"/>
    <timestep time="8.00"/>
    <timestep time="9.00"/>
    <timestep time="10.00"/>
    <timestep time="11.00"/>
    <timestep time="12.00"/>
    <timestep time="13.00"/>
    <timestep time="14.00"/>
    <timestep time="15.00"/>
    <timestep time="16.00"/>
    <timestep time="17.00"/>
    <timestep time="18.00"/>
    <timestep time="19.00"/>
    <timestep time="20.00"/>
    <timestep time="21.00"/>
    <timestep time="22.00"/>
    <timestep time="23.00"/>
    <timestep time="24.00"/>
    <timestep time="25.00"/>
    <timestep time="26.00"/>
    <timestep time="27.00"/>
    <timestep time="28.00"/>
    <timestep time="29.00"/>
    <timestep time="30.00"/>
    <timestep time="31.00"/>
    <timestep time="32.00"/>
    <timestep time="33.00"/>
    <timestep time="34.00"/>
    <timestep time="35.00"/>
    <timestep time="36.00"/>
    <timestep time="37.00"/>
    <timestep time="38.00"/>
    <timestep time="39.00"/>
    <timestep time="40.00">
        <vehicle id="79" x="2985.06" y="3301.60" angle="265.66" type="DEFAULT_VEHTYPE" speed="0.00" pos="5.10" lane="-510702678#1_0" slope="0.00"/>
    </timestep>
    <timestep time="41.00">
        <vehicle id="79" x="2983.49" y="3301.48" angle="265.66" type="DEFAULT_VEHTYPE" speed="1.58" pos="6.68" lane="-510702678#1_0" slope="0.00"/>
    </timestep>
    <timestep time="42.00">
        <vehicle id="79" x="2979.54" y="3301.18" angle="265.66" type="DEFAULT_VEHTYPE" speed="3.96" pos="10.64" lane="-510702678#1_0" slope="0.00"/>
    </timestep>
    <timestep time="43.00">
        <vehicle id="79" x="2973.99" y="3300.75" angle="265.56" type="DEFAULT_VEHTYPE" speed="5.57" pos="16.20" lane="-510702678#1_0" slope="0.00"/>
    </timestep>
    <timestep time="44.00">
        <vehicle id="79" x="2966.20" y="3300.12" angle="265.38" type="DEFAULT_VEHTYPE" speed="7.82" pos="24.02" lane="-510702678#1_0" slope="0.00"/>
    </timestep>
    <timestep time="45.00">
        <vehicle id="79" x="2957.79" y="3299.44" angle="265.38" type="DEFAULT_VEHTYPE" speed="8.44" pos="32.46" lane="-510702678#1_0" slope="0.00"/>
    </timestep>
    <timestep time="46.00">
        <vehicle id="79" x="2949.44" y="3298.77" angle="265.38" type="DEFAULT_VEHTYPE" speed="8.38" pos="40.84" lane="-510702678#1_0" slope="0.00"/>
    </timestep>
    <timestep time="47.00">
        <vehicle id="79" x="2941.67" y="3298.14" angle="265.38" type="DEFAULT_VEHTYPE" speed="7.79" pos="48.63" lane="-510702678#1_0" slope="0.00"/>
    </timestep>
    <timestep time="48.00">
        <vehicle id="79" x="2933.76" y="3297.50" angle="265.38" type="DEFAULT_VEHTYPE" speed="7.94" pos="56.57" lane="-510702678#1_0" slope="0.00"/>
    </timestep>
    <timestep time="49.00">
        <vehicle id="79" x="2926.23" y="3296.89" angle="265.38" type="DEFAULT_VEHTYPE" speed="7.55" pos="64.12" lane="-510702678#1_0" slope="0.00"/>
    </timestep>
    <timestep time="50.00">
        <vehicle id="79" x="2917.77" y="3296.22" angle="265.45" type="DEFAULT_VEHTYPE" speed="8.49" pos="1.88" lane=":26197508_0_0" slope="0.00"/>
    </timestep>
    <timestep time="51.00">
        <vehicle id="79" x="2909.31" y="3295.56" angle="265.57" type="DEFAULT_VEHTYPE" speed="8.48" pos="10.35" lane=":26197508_0_0" slope="0.00"/>
    </timestep>
    <timestep time="52.00">
        <vehicle id="79" x="2900.64" y="3294.85" angle="265.10" type="DEFAULT_VEHTYPE" speed="8.71" pos="3.21" lane=":26197507_1_0" slope="0.00"/>
    </timestep>
    <timestep time="53.00">
        <vehicle id="79" x="2892.78" y="3294.13" angle="264.76" type="DEFAULT_VEHTYPE" speed="7.90" pos="11.11" lane=":26197507_1_0" slope="0.00"/>
    </timestep>
    <timestep time="54.00">
        <vehicle id="79" x="2884.71" y="3293.30" angle="263.79" type="DEFAULT_VEHTYPE" speed="8.12" pos="4.99" lane="5450857#0_0" slope="0.00"/>
    </timestep>
    <timestep time="55.00">
        <vehicle id="79" x="2877.04" y="3292.08" angle="259.39" type="DEFAULT_VEHTYPE" speed="7.77" pos="12.76" lane="5450857#0_0" slope="0.00"/>
    </timestep>
    <timestep time="56.00">
        <vehicle id="79" x="2869.73" y="3289.91" angle="252.48" type="DEFAULT_VEHTYPE" speed="7.63" pos="20.39" lane="5450857#0_0" slope="0.00"/>
    </timestep>
    <timestep time="57.00">
        <vehicle id="79" x="2864.95" y="3288.15" angle="249.72" type="DEFAULT_VEHTYPE" speed="5.10" pos="1.18" lane="5450857#1_0" slope="0.00"/>
    </timestep>
    <timestep time="58.00">
        <vehicle id="79" x="2863.60" y="3287.54" angle="248.17" type="DEFAULT_VEHTYPE" speed="1.48" pos="2.66" lane="5450857#1_0" slope="0.00"/>
    </timestep>
    <timestep time="59.00">
        <vehicle id="79" x="2863.45" y="3287.48" angle="247.99" type="DEFAULT_VEHTYPE" speed="0.17" pos="2.82" lane="5450857#1_0" slope="0.00"/>
    </timestep>
    <timestep time="60.00">
        <vehicle id="79" x="2863.40" y="3287.46" angle="247.94" type="DEFAULT_VEHTYPE" speed="0.05" pos="2.87" lane="5450857#1_0" slope="0.00"/>
    </timestep>
    <timestep time="61.00">
        <vehicle id="79" x="2863.39" y="3287.45" angle="247.92" type="DEFAULT_VEHTYPE" speed="0.02" pos="2.89" lane="5450857#1_0" slope="0.00"/>
    </timestep>
    <timestep time="62.00">
        <vehicle id="79" x="2863.39" y="3287.45" angle="247.92" type="DEFAULT_VEHTYPE" speed="0.00" pos="2.89" lane="5450857#1_0" slope="0.00"/>
    </timestep>
    <timestep time="63.00">
        <vehicle id="79" x="2863.39" y="3287.45" angle="247.92" type="DEFAULT_VEHTYPE" speed="0.00" pos="2.89" lane="5450857#1_0" slope="0.00"/>
    </timestep>
    <timestep time="64.00">
        <vehicle id="79" x="2863.39" y="3287.45" angle="247.92" type="DEFAULT_VEHTYPE" speed="0.00" pos="2.89" lane="5450857#1_0" slope="0.00"/>
    </timestep>
    <timestep time="65.00">
        <vehicle id="79" x="2863.39" y="3287.45" angle="247.92" type="DEFAULT_VEHTYPE" speed="0.00" pos="2.89" lane="5450857#1_0" slope="0.00"/>
    </timestep>
    <timestep time="66.00">
        <vehicle id="79" x="2863.39" y="3287.45" angle="247.92" type="DEFAULT_VEHTYPE" speed="0.00" pos="2.89" lane="5450857#1_0" slope="0.00"/>
    </timestep>
    <timestep time="67.00">
        <vehicle id="79" x="2863.39" y="3287.45" angle="247.92" type="DEFAULT_VEHTYPE" speed="0.00" pos="2.89" lane="5450857#1_0" slope="0.00"/>
    </timestep>
    <timestep time="68.00">
        <vehicle id="79" x="2863.39" y="3287.45" angle="247.92" type="DEFAULT_VEHTYPE" speed="0.00" pos="2.89" lane="5450857#1_0" slope="0.00"/>
    </timestep>
    <timestep time="69.00">
        <vehicle id="79" x="2863.39" y="3287.45" angle="247.92" type="DEFAULT_VEHTYPE" speed="0.00" pos="2.89" lane="5450857#1_0" slope="0.00"/>
    </timestep>
    <timestep time="70.00">
        <vehicle id="79" x="2863.39" y="3287.45" angle="247.92" type="DEFAULT_VEHTYPE" speed="0.00" pos="2.89" lane="5450857#1_0" slope="0.00"/>
    </timestep>
    <timestep time="71.00">
        <vehicle id="79" x="2863.39" y="3287.45" angle="247.92" type="DEFAULT_VEHTYPE" speed="0.00" pos="2.89" lane="5450857#1_0" slope="0.00"/>
    </timestep>
    <timestep time="72.00">
        <vehicle id="79" x="2863.39" y="3287.45" angle="247.92" type="DEFAULT_VEHTYPE" speed="0.00" pos="2.89" lane="5450857#1_0" slope="0.00"/>
    </timestep>
    <timestep time="73.00">
        <vehicle id="79" x="2863.39" y="3287.45" angle="247.92" type="DEFAULT_VEHTYPE" speed="0.00" pos="2.89" lane="5450857#1_0" slope="0.00"/>
    </timestep>
    <timestep time="74.00">
        <vehicle id="79" x="2863.39" y="3287.45" angle="247.92" type="DEFAULT_VEHTYPE" speed="0.00" pos="2.89" lane="5450857#1_0" slope="0.00"/>
    </timestep>
    <timestep time="75.00">
        <vehicle id="79" x="2863.39" y="3287.45" angle="247.92" type="DEFAULT_VEHTYPE" speed="0.00" pos="2.89" lane="5450857#1_0" slope="0.00"/>
    </timestep>
    <timestep time="76.00">
        <vehicle id="79" x="2863.39" y="3287.45" angle="247.92" type="DEFAULT_VEHTYPE" speed="0.00" pos="2.89" lane="5450857#1_0" slope="0.00"/>
    </timestep>
    <timestep time="77.00">
        <vehicle id="79" x="2863.39" y="3287.45" angle="247.92" type="DEFAULT_VEHTYPE" speed="0.00" pos="2.89" lane="5450857#1_0" slope="0.00"/>
    </timestep>
    <timestep time="78.00">
        <vehicle id="79" x="2863.39" y="3287.45" angle="247.92" type="DEFAULT_VEHTYPE" speed="0.00" pos="2.89" lane="5450857#1_0" slope="0.00"/>
    </timestep>
    <timestep time="79.00">
        <vehicle id="79" x="2863.39" y="3287.45" angle="247.92" type="DEFAULT_VEHTYPE" speed="0.00" pos="2.89" lane="5450857#1_0" slope="0.00"/>
    </timestep>
    <timestep time="80.00">
        <vehicle id="79" x="2863.39" y="3287.45" angle="247.92" type="DEFAULT_VEHTYPE" speed="0.00" pos="2.89" lane="5450857#1_0" slope="0.00"/>
    </timestep>
    <timestep time="81.00">
        <vehicle id="79" x="2863.39" y="3287.45" angle="247.92" type="DEFAULT_VEHTYPE" speed="0.00" pos="2.89" lane="5450857#1_0" slope="0.00"/>
    </timestep>
    <timestep time="82.00">
        <vehicle id="79" x="2863.39" y="3287.45" angle="247.92" type="DEFAULT_VEHTYPE" speed="0.00" pos="2.89" lane="5450857#1_0" slope="0.00"/>
    </timestep>
    <timestep time="83.00">
        <vehicle id="79" x="2863.39" y="3287.45" angle="247.92" type="DEFAULT_VEHTYPE" speed="0.00" pos="2.89" lane="5450857#1_0" slope="0.00"/>
    </timestep>
    <timestep time="84.00">
        <vehicle id="79" x="2863.39" y="3287.45" angle="247.92" type="DEFAULT_VEHTYPE" speed="0.00" pos="2.89" lane="5450857#1_0" slope="0.00"/>
    </timestep>
    <timestep time="85.00">
        <vehicle id="79" x="2863.39" y="3287.45" angle="247.92" type="DEFAULT_VEHTYPE" speed="0.00" pos="2.89" lane="5450857#1_0" slope="0.00"/>
    </timestep>
    <timestep time="86.00">
        <vehicle id="79" x="2863.39" y="3287.45" angle="247.92" type="DEFAULT_VEHTYPE" speed="0.00" pos="2.89" lane="5450857#1_0" slope="0.00"/>
    </timestep>
    <timestep time="87.00">
        <vehicle id="79" x="2863.39" y="3287.45" angle="247.92" type="DEFAULT_VEHTYPE" speed="0.00" pos="2.89" lane="5450857#1_0" slope="0.00"/>
    </timestep>
    <timestep time="88.00">
        <vehicle id="79" x="2863.39" y="3287.45" angle="247.92" type="DEFAULT_VEHTYPE" speed="0.00" pos="2.89" lane="5450857#1_0" slope="0.00"/>
    </timestep>
    <timestep time="89.00">
        <vehicle id="79" x="2863.39" y="3287.45" angle="247.92" type="DEFAULT_VEHTYPE" speed="0.00" pos="2.89" lane="5450857#1_0" slope="0.00"/>
    </timestep>
    <timestep time="90.00">
        <vehicle id="79" x="2861.23" y="3286.35" angle="244.51" type="DEFAULT_VEHTYPE" speed="2.42" pos="1.42" lane=":270087112_0_0" slope="0.00"/>
    </timestep>
    <timestep time="91.00">
        <vehicle id="79" x="2857.53" y="3285.03" angle="248.62" type="DEFAULT_VEHTYPE" speed="4.14" pos="0.72" lane=":3124859539_0_0" slope="0.00"/>
    </timestep>
    <timestep time="92.00">
        <vehicle id="79" x="2851.59" y="3286.62" angle="284.95" type="DEFAULT_VEHTYPE" speed="6.15" pos="1.91" lane=":1505420106_0_0" slope="0.00"/>
    </timestep>
    <timestep time="93.00">
        <vehicle id="79" x="2845.08" y="3291.28" angle="315.60" type="DEFAULT_VEHTYPE" speed="8.25" pos="0.26" lane=":3124859553_0_0" slope="0.00"/>
    </timestep>
    <timestep time="94.00">
        <vehicle id="79" x="2840.22" y="3298.31" angle="325.86" type="DEFAULT_VEHTYPE" speed="8.55" pos="4.32" lane="40493384#3_0" slope="0.00"/>
    </timestep>
    <timestep time="95.00">
        <vehicle id="79" x="2835.99" y="3304.59" angle="326.05" type="DEFAULT_VEHTYPE" speed="7.57" pos="11.89" lane="40493384#3_0" slope="0.00"/>
    </timestep>
    <timestep time="96.00">
        <vehicle id="79" x="2831.72" y="3310.94" angle="326.05" type="DEFAULT_VEHTYPE" speed="7.65" pos="19.54" lane="40493384#3_0" slope="0.00"/>
    </timestep>
    <timestep time="97.00">
        <vehicle id="79" x="2827.39" y="3317.37" angle="326.05" type="DEFAULT_VEHTYPE" speed="7.76" pos="27.30" lane="40493384#3_0" slope="0.00"/>
    </timestep>
    <timestep time="98.00">
        <vehicle id="79" x="2823.15" y="3323.67" angle="326.05" type="DEFAULT_VEHTYPE" speed="7.60" pos="34.89" lane="40493384#3_0" slope="0.00"/>
    </timestep>
    <timestep time="99.00">
        <vehicle id="79" x="2818.43" y="3330.70" angle="326.18" type="DEFAULT_VEHTYPE" speed="8.46" pos="2.90" lane=":5976397643_0_0" slope="0.00"/>
    </timestep>
    <timestep time="100.00">
        <vehicle id="79" x="2813.96" y="3337.39" angle="326.25" type="DEFAULT_VEHTYPE" speed="8.05" pos="3.96" lane="40493384#4_0" slope="0.00"/>
    </timestep>
    <timestep time="101.00">
        <vehicle id="79" x="2809.70" y="3343.77" angle="326.25" type="DEFAULT_VEHTYPE" speed="7.67" pos="11.63" lane="40493384#4_0" slope="0.00"/>
    </timestep>
    <timestep time="102.00">
        <vehicle id="79" x="2805.30" y="3350.35" angle="326.25" type="DEFAULT_VEHTYPE" speed="7.90" pos="19.54" lane="40493384#4_0" slope="0.00"/>
    </timestep>
    <timestep time="103.00">
        <vehicle id="79" x="2800.40" y="3357.63" angle="326.01" type="DEFAULT_VEHTYPE" speed="8.77" pos="1.35" lane="40493384#5_0" slope="0.00"/>
    </timestep>
    <timestep time="104.00">
        <vehicle id="79" x="2795.45" y="3364.93" angle="325.83" type="DEFAULT_VEHTYPE" speed="8.83" pos="10.17" lane="40493384#5_0" slope="0.00"/>
    </timestep>
    <timestep time="105.00">
        <vehicle id="79" x="2790.71" y="3371.90" angle="325.83" type="DEFAULT_VEHTYPE" speed="8.42" pos="18.60" lane="40493384#5_0" slope="0.00"/>
    </timestep>
    <timestep time="106.00">
        <vehicle id="79" x="2786.27" y="3378.45" angle="325.83" type="DEFAULT_VEHTYPE" speed="7.91" pos="26.51" lane="40493384#5_0" slope="0.00"/>
    </timestep>
    <timestep time="107.00">
        <vehicle id="79" x="2781.78" y="3385.04" angle="325.75" type="DEFAULT_VEHTYPE" speed="7.98" pos="3.37" lane=":4994911937_0_0" slope="0.00"/>
    </timestep>
    <timestep time="108.00">
        <vehicle id="79" x="2777.48" y="3391.32" angle="325.53" type="DEFAULT_VEHTYPE" speed="7.61" pos="5.88" lane="510493161_0" slope="0.00"/>
    </timestep>
    <timestep time="109.00">
        <vehicle id="79" x="2772.70" y="3398.28" angle="325.53" type="DEFAULT_VEHTYPE" speed="8.45" pos="14.33" lane="510493161_0" slope="0.00"/>
    </timestep>
    <timestep time="110.00">
        <vehicle id="79" x="2767.75" y="3405.49" angle="325.53" type="DEFAULT_VEHTYPE" speed="8.74" pos="23.07" lane="510493161_0" slope="0.00"/>
    </timestep>
    <timestep time="111.00">
        <vehicle id="79" x="2765.26" y="3409.13" angle="325.53" type="DEFAULT_VEHTYPE" speed="4.42" pos="27.49" lane="510493161_0" slope="0.00"/>
    </timestep>
    <timestep time="112.00">
        <vehicle id="79" x="2761.45" y="3414.65" angle="325.48" type="DEFAULT_VEHTYPE" speed="6.70" pos="6.16" lane=":9325026_4_0" slope="0.00"/>
    </timestep>
    <timestep time="113.00">
        <vehicle id="79" x="2757.00" y="3421.13" angle="325.48" type="DEFAULT_VEHTYPE" speed="7.86" pos="14.02" lane=":9325026_4_0" slope="0.00"/>
    </timestep>
    <timestep time="114.00">
        <vehicle id="79" x="2752.54" y="3427.61" angle="325.46" type="DEFAULT_VEHTYPE" speed="7.87" pos="6.81" lane="40493385#0_0" slope="0.00"/>
    </timestep>
    <timestep time="115.00">
        <vehicle id="79" x="2748.01" y="3434.18" angle="325.46" type="DEFAULT_VEHTYPE" speed="7.98" pos="14.79" lane="40493385#0_0" slope="0.00"/>
    </timestep>
    <timestep time="116.00">
        <vehicle id="79" x="2743.40" y="3440.88" angle="325.46" type="DEFAULT_VEHTYPE" speed="8.14" pos="22.93" lane="40493385#0_0" slope="0.00"/>
    </timestep>
    <timestep time="117.00">
        <vehicle id="79" x="2738.68" y="3447.74" angle="325.46" type="DEFAULT_VEHTYPE" speed="8.32" pos="31.25" lane="40493385#0_0" slope="0.00"/>
    </timestep>
    <timestep time="118.00">
        <vehicle id="79" x="2734.49" y="3453.87" angle="325.72" type="DEFAULT_VEHTYPE" speed="7.60" pos="1.42" lane=":3132143352_0_0" slope="0.00"/>
    </timestep>
    <timestep time="119.00">
        <vehicle id="79" x="2732.38" y="3457.05" angle="326.47" type="DEFAULT_VEHTYPE" speed="3.81" pos="0.57" lane="40493385#2_0" slope="0.00"/>
    </timestep>
    <timestep time="120.00">
        <vehicle id="79" x="2729.18" y="3461.94" angle="326.92" type="DEFAULT_VEHTYPE" speed="5.84" pos="4.41" lane=":26912916_0_0" slope="0.00"/>
    </timestep>
    <timestep time="121.00">
        <vehicle id="79" x="2725.03" y="3468.34" angle="326.99" type="DEFAULT_VEHTYPE" speed="7.63" pos="12.04" lane=":26912916_0_0" slope="0.00"/>
    </timestep>
    <timestep time="122.00">
        <vehicle id="79" x="2720.41" y="3475.29" angle="326.02" type="DEFAULT_VEHTYPE" speed="8.34" pos="0.33" lane="231945290#1_0" slope="0.00"/>
    </timestep>
    <timestep time="123.00">
        <vehicle id="79" x="2716.08" y="3481.52" angle="325.17" type="DEFAULT_VEHTYPE" speed="7.59" pos="7.92" lane="231945290#1_0" slope="0.00"/>
    </timestep>
    <timestep time="124.00">
        <vehicle id="79" x="2711.66" y="3487.87" angle="325.17" type="DEFAULT_VEHTYPE" speed="7.74" pos="15.65" lane="231945290#1_0" slope="0.00"/>
    </timestep>
    <timestep time="125.00">
        <vehicle id="79" x="2707.27" y="3494.18" angle="325.17" type="DEFAULT_VEHTYPE" speed="7.69" pos="23.34" lane="231945290#1_0" slope="0.00"/>
    </timestep>
    <timestep time="126.00">
        <vehicle id="79" x="2702.26" y="3501.39" angle="325.17" type="DEFAULT_VEHTYPE" speed="8.78" pos="32.12" lane="231945290#1_0" slope="0.00"/>
    </timestep>
    <timestep time="127.00">
        <vehicle id="79" x="2699.60" y="3505.21" angle="325.17" type="DEFAULT_VEHTYPE" speed="4.66" pos="36.78" lane="231945290#1_0" slope="0.00"/>
    </timestep>
    <timestep time="128.00">
        <vehicle id="79" x="2695.58" y="3511.03" angle="325.42" type="DEFAULT_VEHTYPE" speed="7.07" pos="5.73" lane=":145349_1_0" slope="0.00"/>
    </timestep>
    <timestep time="129.00">
        <vehicle id="79" x="2691.08" y="3517.58" angle="325.54" type="DEFAULT_VEHTYPE" speed="7.94" pos="2.45" lane="231945290#2_0" slope="0.00"/>
    </timestep>
    <timestep time="130.00">
        <vehicle id="79" x="2686.62" y="3524.10" angle="325.67" type="DEFAULT_VEHTYPE" speed="7.90" pos="10.35" lane="231945290#2_0" slope="0.00"/>
    </timestep>
    <timestep time="131.00">
        <vehicle id="79" x="2681.78" y="3531.19" angle="325.67" type="DEFAULT_VEHTYPE" speed="8.59" pos="18.94" lane="231945290#2_0" slope="0.00"/>
    </timestep>
    <timestep time="132.00">
        <vehicle id="79" x="2676.81" y="3538.47" angle="325.67" type="DEFAULT_VEHTYPE" speed="8.81" pos="27.75" lane="231945290#2_0" slope="0.00"/>
    </timestep>
    <timestep time="133.00">
        <vehicle id="79" x="2671.93" y="3545.62" angle="325.67" type="DEFAULT_VEHTYPE" speed="8.66" pos="36.41" lane="231945290#2_0" slope="0.00"/>
    </timestep>
    <timestep time="134.00">
        <vehicle id="79" x="2667.03" y="3552.79" angle="325.67" type="DEFAULT_VEHTYPE" speed="8.69" pos="45.10" lane="231945290#2_0" slope="0.00"/>
    </timestep>
    <timestep time="135.00">
        <vehicle id="79" x="2662.73" y="3559.09" angle="325.67" type="DEFAULT_VEHTYPE" speed="7.62" pos="52.73" lane="231945290#2_0" slope="0.00"/>
    </timestep>
    <timestep time="136.00">
        <vehicle id="79" x="2657.89" y="3566.17" angle="325.67" type="DEFAULT_VEHTYPE" speed="8.57" pos="61.30" lane="231945290#2_0" slope="0.00"/>
    </timestep>
    <timestep time="137.00">
        <vehicle id="79" x="2652.96" y="3573.40" angle="325.67" type="DEFAULT_VEHTYPE" speed="8.75" pos="70.05" lane="231945290#2_0" slope="0.00"/>
    </timestep>
    <timestep time="138.00">
        <vehicle id="79" x="2648.33" y="3580.27" angle="326.23" type="DEFAULT_VEHTYPE" speed="8.28" pos="4.22" lane=":26232925_1_0" slope="0.00"/>
    </timestep>
    <timestep time="139.00">
        <vehicle id="79" x="2644.13" y="3586.62" angle="326.63" type="DEFAULT_VEHTYPE" speed="7.61" pos="2.81" lane="231945290#3_0" slope="0.00"/>
    </timestep>
    <timestep time="140.00">
        <vehicle id="79" x="2639.35" y="3593.94" angle="326.87" type="DEFAULT_VEHTYPE" speed="8.74" pos="11.54" lane="231945290#3_0" slope="0.00"/>
    </timestep>
    <timestep time="141.00">
        <vehicle id="79" x="2634.79" y="3600.93" angle="326.87" type="DEFAULT_VEHTYPE" speed="8.35" pos="19.89" lane="231945290#3_0" slope="0.00"/>
    </timestep>
    <timestep time="142.00">
        <vehicle id="79" x="2630.65" y="3607.26" angle="326.87" type="DEFAULT_VEHTYPE" speed="7.57" pos="27.46" lane="231945290#3_0" slope="0.00"/>
    </timestep>
    <timestep time="143.00">
        <vehicle id="79" x="2626.36" y="3613.84" angle="326.87" type="DEFAULT_VEHTYPE" speed="7.86" pos="35.32" lane="231945290#3_0" slope="0.00"/>
    </timestep>
    <timestep time="144.00">
        <vehicle id="79" x="2621.97" y="3620.03" angle="323.54" type="DEFAULT_VEHTYPE" speed="7.60" pos="2.57" lane=":1318665562_1_0" slope="0.00"/>
    </timestep>
    <timestep time="145.00">
        <vehicle id="79" x="2615.46" y="3625.60" angle="307.99" type="DEFAULT_VEHTYPE" speed="8.59" pos="11.16" lane=":1318665562_1_0" slope="0.00"/>
    </timestep>
    <timestep time="146.00">
        <vehicle id="79" x="2609.52" y="3630.33" angle="309.21" type="DEFAULT_VEHTYPE" speed="7.59" pos="3.40" lane=":1505400788_0_0" slope="0.00"/>
    </timestep>
    <timestep time="147.00">
        <vehicle id="79" x="2603.22" y="3635.61" angle="309.98" type="DEFAULT_VEHTYPE" speed="8.22" pos="11.62" lane=":1505400788_0_0" slope="0.00"/>
    </timestep>
    <timestep time="148.00">
        <vehicle id="79" x="2597.40" y="3641.21" angle="314.27" type="DEFAULT_VEHTYPE" speed="8.08" pos="7.34" lane="137238867#2_0" slope="0.00"/>
    </timestep>
    <timestep time="149.00">
        <vehicle id="79" x="2592.66" y="3645.83" angle="314.27" type="DEFAULT_VEHTYPE" speed="6.62" pos="13.96" lane="137238867#2_0" slope="0.00"/>
    </timestep>
    <timestep time="150.00">
        <vehicle id="79" x="2586.51" y="3651.61" angle="312.51" type="DEFAULT_VEHTYPE" speed="8.45" pos="4.53" lane=":30116834_0_0" slope="0.00"/>
    </timestep>
    <timestep time="151.00">
        <vehicle id="79" x="2579.02" y="3658.84" angle="315.50" type="DEFAULT_VEHTYPE" speed="10.40" pos="14.94" lane=":30116834_0_0" slope="0.00"/>
    </timestep>
    <timestep time="152.00">
        <vehicle id="79" x="2571.75" y="3667.93" angle="323.45" type="DEFAULT_VEHTYPE" speed="11.66" pos="2.05" lane="4726785#1_0" slope="0.00"/>
    </timestep>
    <timestep time="153.00">
        <vehicle id="79" x="2564.06" y="3679.21" angle="325.71" type="DEFAULT_VEHTYPE" speed="13.65" pos="15.70" lane="4726785#1_0" slope="0.00"/>
    </timestep>
    <timestep time="154.00">
        <vehicle id="79" x="2556.39" y="3690.46" angle="325.71" type="DEFAULT_VEHTYPE" speed="13.62" pos="29.31" lane="4726785#1_0" slope="0.00"/>
    </timestep>
    <timestep time="155.00">
        <vehicle id="79" x="2548.43" y="3702.13" angle="325.71" type="DEFAULT_VEHTYPE" speed="14.13" pos="43.45" lane="4726785#1_0" slope="0.00"/>
    </timestep>
    <timestep time="156.00">
        <vehicle id="79" x="2540.76" y="3713.37" angle="325.71" type="DEFAULT_VEHTYPE" speed="13.61" pos="57.05" lane="4726785#1_0" slope="0.00"/>
    </timestep>
    <timestep time="157.00">
        <vehicle id="79" x="2534.80" y="3722.11" angle="325.71" type="DEFAULT_VEHTYPE" speed="10.58" pos="67.63" lane="4726785#1_0" slope="0.00"/>
    </timestep>
    <timestep time="158.00">
        <vehicle id="79" x="2529.25" y="3731.64" angle="331.06" type="DEFAULT_VEHTYPE" speed="11.03" pos="10.90" lane=":349729109_0_0" slope="0.00"/>
    </timestep>
    <timestep time="159.00">
        <vehicle id="79" x="2524.59" y="3741.16" angle="335.01" type="DEFAULT_VEHTYPE" speed="10.60" pos="21.51" lane=":349729109_0_0" slope="0.00"/>
    </timestep>
    <timestep time="160.00">
        <vehicle id="79" x="2521.13" y="3748.95" angle="336.53" type="DEFAULT_VEHTYPE" speed="8.53" pos="0.27" lane="31389747_0" slope="0.00"/>
    </timestep>
    <timestep time="161.00">
        <vehicle id="79" x="2518.10" y="3756.14" angle="337.14" type="DEFAULT_VEHTYPE" speed="7.79" pos="8.06" lane="31389747_0" slope="0.00"/>
    </timestep>
    <timestep time="162.00">
        <vehicle id="79" x="2515.05" y="3763.48" angle="337.62" type="DEFAULT_VEHTYPE" speed="7.95" pos="16.01" lane="31389747_0" slope="0.00"/>
    </timestep>
    <timestep time="163.00">
        <vehicle id="79" x="2512.07" y="3770.88" angle="338.05" type="DEFAULT_VEHTYPE" speed="7.97" pos="23.99" lane="31389747_0" slope="0.00"/>
    </timestep>
    <timestep time="164.00">
        <vehicle id="79" x="2508.88" y="3778.79" angle="338.05" type="DEFAULT_VEHTYPE" speed="8.53" pos="32.52" lane="31389747_0" slope="0.00"/>
    </timestep>
    <timestep time="165.00">
        <vehicle id="79" x="2505.91" y="3786.74" angle="339.82" type="DEFAULT_VEHTYPE" speed="8.48" pos="7.31" lane=":349729364_1_0" slope="0.00"/>
    </timestep>
    <timestep time="166.00">
        <vehicle id="79" x="2501.72" y="3794.42" angle="328.33" type="DEFAULT_VEHTYPE" speed="8.78" pos="2.23" lane="610739513#0_0" slope="0.00"/>
    </timestep>
    <timestep time="167.00">
        <vehicle id="79" x="2496.87" y="3801.64" angle="326.12" type="DEFAULT_VEHTYPE" speed="8.70" pos="10.92" lane="610739513#0_0" slope="0.00"/>
    </timestep>
    <timestep time="168.00">
        <vehicle id="79" x="2492.55" y="3808.08" angle="326.12" type="DEFAULT_VEHTYPE" speed="7.75" pos="18.68" lane="610739513#0_0" slope="0.00"/>
    </timestep>
    <timestep time="169.00">
        <vehicle id="79" x="2487.93" y="3814.95" angle="326.12" type="DEFAULT_VEHTYPE" speed="8.28" pos="26.96" lane="610739513#0_0" slope="0.00"/>
    </timestep>
    <timestep time="170.00">
        <vehicle id="79" x="2483.37" y="3821.75" angle="326.12" type="DEFAULT_VEHTYPE" speed="8.19" pos="35.15" lane="610739513#0_0" slope="0.00"/>
    </timestep>
    <timestep time="171.00">
        <vehicle id="79" x="2478.76" y="3828.62" angle="326.12" type="DEFAULT_VEHTYPE" speed="8.27" pos="43.42" lane="610739513#0_0" slope="0.00"/>
    </timestep>
    <timestep time="172.00">
        <vehicle id="79" x="2474.34" y="3835.20" angle="326.12" type="DEFAULT_VEHTYPE" speed="7.93" pos="51.35" lane="610739513#0_0" slope="0.00"/>
    </timestep>
    <timestep time="173.00">
        <vehicle id="79" x="2469.60" y="3842.25" angle="326.12" type="DEFAULT_VEHTYPE" speed="8.49" pos="59.83" lane="610739513#0_0" slope="0.00"/>
    </timestep>
    <timestep time="174.00">
        <vehicle id="79" x="2465.35" y="3848.59" angle="326.12" type="DEFAULT_VEHTYPE" speed="7.64" pos="67.47" lane="610739513#0_0" slope="0.00"/>
    </timestep>
    <timestep time="175.00">
        <vehicle id="79" x="2460.61" y="3855.64" angle="326.12" type="DEFAULT_VEHTYPE" speed="8.49" pos="75.96" lane="610739513#0_0" slope="0.00"/>
    </timestep>
    <timestep time="176.00">
        <vehicle id="79" x="2456.25" y="3862.13" angle="326.12" type="DEFAULT_VEHTYPE" speed="7.82" pos="83.79" lane="610739513#0_0" slope="0.00"/>
    </timestep>
    <timestep time="177.00">
        <vehicle id="79" x="2451.38" y="3869.38" angle="326.12" type="DEFAULT_VEHTYPE" speed="8.73" pos="92.52" lane="610739513#0_0" slope="0.00"/>
    </timestep>
    <timestep time="178.00">
        <vehicle id="79" x="2446.74" y="3876.29" angle="326.12" type="DEFAULT_VEHTYPE" speed="8.32" pos="100.84" lane="610739513#0_0" slope="0.00"/>
    </timestep>
    <timestep time="179.00">
        <vehicle id="79" x="2441.86" y="3883.57" angle="326.12" type="DEFAULT_VEHTYPE" speed="8.77" pos="109.61" lane="610739513#0_0" slope="0.00"/>
    </timestep>
    <timestep time="180.00">
        <vehicle id="79" x="2437.47" y="3890.09" angle="326.12" type="DEFAULT_VEHTYPE" speed="7.86" pos="117.47" lane="610739513#0_0" slope="0.00"/>
    </timestep>
    <timestep time="181.00">
        <vehicle id="79" x="2432.47" y="3896.89" angle="322.96" type="DEFAULT_VEHTYPE" speed="8.44" pos="6.57" lane=":234636281_0_0" slope="0.00"/>
    </timestep>
    <timestep time="182.00">
        <vehicle id="79" x="2427.36" y="3903.96" angle="325.38" type="DEFAULT_VEHTYPE" speed="8.74" pos="0.55" lane="610739513#2_0" slope="0.00"/>
    </timestep>
    <timestep time="183.00">
        <vehicle id="79" x="2422.97" y="3910.90" angle="327.70" type="DEFAULT_VEHTYPE" speed="8.21" pos="8.76" lane="610739513#2_0" slope="0.00"/>
    </timestep>
    <timestep time="184.00">
        <vehicle id="79" x="2418.46" y="3918.04" angle="327.70" type="DEFAULT_VEHTYPE" speed="8.44" pos="17.20" lane="610739513#2_0" slope="0.00"/>
    </timestep>
    <timestep time="185.00">
        <vehicle id="79" x="2414.42" y="3924.43" angle="327.70" type="DEFAULT_VEHTYPE" speed="7.56" pos="24.76" lane="610739513#2_0" slope="0.00"/>
    </timestep>
    <timestep time="186.00">