<?xml version="1.0" encoding="UTF-8"?>

<!-- generated on 2023-07-14 07:04:55 by Eclipse SUMO sumo Version 1.18.0
<configuration xmlns:xsi="http://www.w3.org/2001/XMLSchema-instance" xsi:noNamespaceSchemaLocation="http://sumo.dlr.de/xsd/sumoConfiguration.xsd">

    <input>
        <net-file value="ixelles.net.xml"/>
        <route-files value="exp2_fig.routes.xml"/>
        <additional-files value="rerouter.add.xml"/>
    </input>

    <output>
        <fcd-output value="fcd4.xml"/>
    </output>

    <processing>
        <ignore-route-errors value="true"/>
    </processing>

</configuration>
-->

<fcd-export xmlns:xsi="http://www.w3.org/2001/XMLSchema-instance" xsi:noNamespaceSchemaLocation="http://sumo.dlr.de/xsd/fcd_file.xsd">
    <timestep time="0.00"/>
    <timestep time="1.00"/>
    <timestep time="2.00"/>
    <timestep time="3.00"/>
    <timestep time="4.00"/>
    <timestep time="5.00"/>
    <timestep time="6.00"/>
    <timestep time="7.00"/>
    <timestep time="8.00"/>
    <timestep time="9.00"/>
    <timestep time="10.00"/>
    <timestep time="11.00"/>
    <timestep time="12.00"/>
    <timestep time="13.00"/>
    <timestep time="14.00"/>
    <timestep time="15.00"/>
    <timestep time="16.00"/>
    <timestep time="17.00"/>
    <timestep time="18.00"/>
    <timestep time="19.00"/>
    <timestep time="20.00"/>
    <timestep time="21.00"/>
    <timestep time="22.00"/>
    <timestep time="23.00"/>
    <timestep time="24.00"/>
    <timestep time="25.00"/>
    <timestep time="26.00"/>
    <timestep time="27.00"/>
    <timestep time="28.00"/>
    <timestep time="29.00"/>
    <timestep time="30.00"/>
    <timestep time="31.00"/>
    <timestep time="32.00"/>
    <timestep time="33.00"/>
    <timestep time="34.00"/>
    <timestep time="35.00"/>
    <timestep time="36.00"/>
    <timestep time="37.00"/>
    <timestep time="38.00"/>
    <timestep time="39.00"/>
    <timestep time="40.00">
        <vehicle id="79" x="2985.06" y="3301.60" angle="265.66" type="DEFAULT_VEHTYPE" speed="0.00" pos="5.10" lane="-510702678#1_0" slope="0.00"/>
    </timestep>
    <timestep time="41.00">
        <vehicle id="79" x="2982.61" y="3301.42" angle="265.66" type="DEFAULT_VEHTYPE" speed="2.47" pos="7.57" lane="-510702678#1_0" slope="0.00"/>
    </timestep>
    <timestep time="42.00">
        <vehicle id="79" x="2978.63" y="3301.11" angle="265.66" type="DEFAULT_VEHTYPE" speed="3.99" pos="11.55" lane="-510702678#1_0" slope="0.00"/>
    </timestep>
    <timestep time="43.00">
        <vehicle id="79" x="2972.60" y="3300.64" angle="265.48" type="DEFAULT_VEHTYPE" speed="6.04" pos="17.60" lane="-510702678#1_0" slope="0.00"/>
    </timestep>
    <timestep time="44.00">
        <vehicle id="79" x="2964.63" y="3300.00" angle="265.38" type="DEFAULT_VEHTYPE" speed="8.00" pos="25.60" lane="-510702678#1_0" slope="0.00"/>
    </timestep>
    <timestep time="45.00">
        <vehicle id="79" x="2956.39" y="3299.33" angle="265.38" type="DEFAULT_VEHTYPE" speed="8.27" pos="33.87" lane="-510702678#1_0" slope="0.00"/>
    </timestep>
    <timestep time="46.00">
        <vehicle id="79" x="2948.48" y="3298.69" angle="265.38" type="DEFAULT_VEHTYPE" speed="7.93" pos="41.79" lane="-510702678#1_0" slope="0.00"/>
    </timestep>
    <timestep time="47.00">
        <vehicle id="79" x="2940.02" y="3298.01" angle="265.38" type="DEFAULT_VEHTYPE" speed="8.49" pos="50.28" lane="-510702678#1_0" slope="0.00"/>
    </timestep>
    <timestep time="48.00">
        <vehicle id="79" x="2932.41" y="3297.39" angle="265.38" type="DEFAULT_VEHTYPE" speed="7.64" pos="57.92" lane="-510702678#1_0" slope="0.00"/>
    </timestep>
    <timestep time="49.00">
        <vehicle id="79" x="2923.94" y="3296.71" angle="265.38" type="DEFAULT_VEHTYPE" speed="8.49" pos="66.41" lane="-510702678#1_0" slope="0.00"/>
    </timestep>
    <timestep time="50.00">
        <vehicle id="79" x="2916.14" y="3296.09" angle="265.51" type="DEFAULT_VEHTYPE" speed="7.82" pos="3.51" lane=":26197508_0_0" slope="0.00"/>
    </timestep>
    <timestep time="51.00">
        <vehicle id="79" x="2908.18" y="3295.47" angle="265.57" type="DEFAULT_VEHTYPE" speed="7.98" pos="11.49" lane=":26197508_0_0" slope="0.00"/>
    </timestep>
    <timestep time="52.00">
        <vehicle id="79" x="2900.08" y="3294.80" angle="265.00" type="DEFAULT_VEHTYPE" speed="8.14" pos="3.77" lane=":26197507_1_0" slope="0.00"/>
    </timestep>
    <timestep time="53.00">
        <vehicle id="79" x="2891.76" y="3294.03" angle="264.76" type="DEFAULT_VEHTYPE" speed="8.36" pos="12.13" lane=":26197507_1_0" slope="0.00"/>
    </timestep>
    <timestep time="54.00">
        <vehicle id="79" x="2883.81" y="3293.20" angle="263.79" type="DEFAULT_VEHTYPE" speed="8.00" pos="5.89" lane="5450857#0_0" slope="0.00"/>
    </timestep>
    <timestep time="55.00">
        <vehicle id="79" x="2875.99" y="3291.83" angle="257.82" type="DEFAULT_VEHTYPE" speed="7.96" pos="13.84" lane="5450857#0_0" slope="0.00"/>
    </timestep>
    <timestep time="56.00">
        <vehicle id="79" x="2868.61" y="3289.53" angle="251.68" type="DEFAULT_VEHTYPE" speed="7.73" pos="21.58" lane="5450857#0_0" slope="0.00"/>
    </timestep>
    <timestep time="57.00">
        <vehicle id="79" x="2863.91" y="3287.68" angle="248.52" type="DEFAULT_VEHTYPE" speed="5.05" pos="2.32" lane="5450857#1_0" slope="0.00"/>
    </timestep>
    <timestep time="58.00">
        <vehicle id="79" x="2863.40" y="3287.46" angle="247.94" type="DEFAULT_VEHTYPE" speed="0.55" pos="2.87" lane="5450857#1_0" slope="0.00"/>
    </timestep>
    <timestep time="59.00">
        <vehicle id="79" x="2863.39" y="3287.45" angle="247.93" type="DEFAULT_VEHTYPE" speed="0.01" pos="2.88" lane="5450857#1_0" slope="0.00"/>
    </timestep>
    <timestep time="60.00">
        <vehicle id="79" x="2863.39" y="3287.45" angle="247.92" type="DEFAULT_VEHTYPE" speed="0.00" pos="2.89" lane="5450857#1_0" slope="0.00"/>
    </timestep>
    <timestep time="61.00">
        <vehicle id="79" x="2863.39" y="3287.45" angle="247.92" type="DEFAULT_VEHTYPE" speed="0.00" pos="2.89" lane="5450857#1_0" slope="0.00"/>
    </timestep>
    <timestep time="62.00">
        <vehicle id="79" x="2863.39" y="3287.45" angle="247.92" type="DEFAULT_VEHTYPE" speed="0.00" pos="2.89" lane="5450857#1_0" slope="0.00"/>
    </timestep>
    <timestep time="63.00">
        <vehicle id="79" x="2863.39" y="3287.45" angle="247.92" type="DEFAULT_VEHTYPE" speed="0.00" pos="2.89" lane="5450857#1_0" slope="0.00"/>
    </timestep>
    <timestep time="64.00">
        <vehicle id="79" x="2863.39" y="3287.45" angle="247.92" type="DEFAULT_VEHTYPE" speed="0.00" pos="2.89" lane="5450857#1_0" slope="0.00"/>
    </timestep>
    <timestep time="65.00">
        <vehicle id="79" x="2863.39" y="3287.45" angle="247.92" type="DEFAULT_VEHTYPE" speed="0.00" pos="2.89" lane="5450857#1_0" slope="0.00"/>
    </timestep>
    <timestep time="66.00">
        <vehicle id="79" x="2863.39" y="3287.45" angle="247.92" type="DEFAULT_VEHTYPE" speed="0.00" pos="2.89" lane="5450857#1_0" slope="0.00"/>
    </timestep>
    <timestep time="67.00">
        <vehicle id="79" x="2863.39" y="3287.45" angle="247.92" type="DEFAULT_VEHTYPE" speed="0.00" pos="2.89" lane="5450857#1_0" slope="0.00"/>
    </timestep>
    <timestep time="68.00">
        <vehicle id="79" x="2863.39" y="3287.45" angle="247.92" type="DEFAULT_VEHTYPE" speed="0.00" pos="2.89" lane="5450857#1_0" slope="0.00"/>
    </timestep>
    <timestep time="69.00">
        <vehicle id="79" x="2863.39" y="3287.45" angle="247.92" type="DEFAULT_VEHTYPE" speed="0.00" pos="2.89" lane="5450857#1_0" slope="0.00"/>
    </timestep>
    <timestep time="70.00">
        <vehicle id="79" x="2863.39" y="3287.45" angle="247.92" type="DEFAULT_VEHTYPE" speed="0.00" pos="2.89" lane="5450857#1_0" slope="0.00"/>
    </timestep>
    <timestep time="71.00">
        <vehicle id="79" x="2863.39" y="3287.45" angle="247.92" type="DEFAULT_VEHTYPE" speed="0.00" pos="2.89" lane="5450857#1_0" slope="0.00"/>
    </timestep>
    <timestep time="72.00">
        <vehicle id="79" x="2863.39" y="3287.45" angle="247.92" type="DEFAULT_VEHTYPE" speed="0.00" pos="2.89" lane="5450857#1_0" slope="0.00"/>
    </timestep>
    <timestep time="73.00">
        <vehicle id="79" x="2863.39" y="3287.45" angle="247.92" type="DEFAULT_VEHTYPE" speed="0.00" pos="2.89" lane="5450857#1_0" slope="0.00"/>
    </timestep>
    <timestep time="74.00">
        <vehicle id="79" x="2863.39" y="3287.45" angle="247.92" type="DEFAULT_VEHTYPE" speed="0.00" pos="2.89" lane="5450857#1_0" slope="0.00"/>
    </timestep>
    <timestep time="75.00">
        <vehicle id="79" x="2863.39" y="3287.45" angle="247.92" type="DEFAULT_VEHTYPE" speed="0.00" pos="2.89" lane="5450857#1_0" slope="0.00"/>
    </timestep>
    <timestep time="76.00">
        <vehicle id="79" x="2863.39" y="3287.45" angle="247.92" type="DEFAULT_VEHTYPE" speed="0.00" pos="2.89" lane="5450857#1_0" slope="0.00"/>
    </timestep>
    <timestep time="77.00">
        <vehicle id="79" x="2863.39" y="3287.45" angle="247.92" type="DEFAULT_VEHTYPE" speed="0.00" pos="2.89" lane="5450857#1_0" slope="0.00"/>
    </timestep>
    <timestep time="78.00">
        <vehicle id="79" x="2863.39" y="3287.45" angle="247.92" type="DEFAULT_VEHTYPE" speed="0.00" pos="2.89" lane="5450857#1_0" slope="0.00"/>
    </timestep>
    <timestep time="79.00">
        <vehicle id="79" x="2863.39" y="3287.45" angle="247.92" type="DEFAULT_VEHTYPE" speed="0.00" pos="2.89" lane="5450857#1_0" slope="0.00"/>
    </timestep>
    <timestep time="80.00">
        <vehicle id="79" x="2863.39" y="3287.45" angle="247.92" type="DEFAULT_VEHTYPE" speed="0.00" pos="2.89" lane="5450857#1_0" slope="0.00"/>
    </timestep>
    <timestep time="81.00">
        <vehicle id="79" x="2863.39" y="3287.45" angle="247.92" type="DEFAULT_VEHTYPE" speed="0.00" pos="2.89" lane="5450857#1_0" slope="0.00"/>
    </timestep>
    <timestep time="82.00">
        <vehicle id="79" x="2863.39" y="3287.45" angle="247.92" type="DEFAULT_VEHTYPE" speed="0.00" pos="2.89" lane="5450857#1_0" slope="0.00"/>
    </timestep>
    <timestep time="83.00">
        <vehicle id="79" x="2863.39" y="3287.45" angle="247.92" type="DEFAULT_VEHTYPE" speed="0.00" pos="2.89" lane="5450857#1_0" slope="0.00"/>
    </timestep>
    <timestep time="84.00">
        <vehicle id="79" x="2863.39" y="3287.45" angle="247.92" type="DEFAULT_VEHTYPE" speed="0.00" pos="2.89" lane="5450857#1_0" slope="0.00"/>
    </timestep>
    <timestep time="85.00">
        <vehicle id="79" x="2863.39" y="3287.45" angle="247.92" type="DEFAULT_VEHTYPE" speed="0.00" pos="2.89" lane="5450857#1_0" slope="0.00"/>
    </timestep>
    <timestep time="86.00">
        <vehicle id="79" x="2863.39" y="3287.45" angle="247.92" type="DEFAULT_VEHTYPE" speed="0.00" pos="2.89" lane="5450857#1_0" slope="0.00"/>
    </timestep>
    <timestep time="87.00">
        <vehicle id="79" x="2863.39" y="3287.45" angle="247.92" type="DEFAULT_VEHTYPE" speed="0.00" pos="2.89" lane="5450857#1_0" slope="0.00"/>
    </timestep>
    <timestep time="88.00">
        <vehicle id="79" x="2863.39" y="3287.45" angle="247.92" type="DEFAULT_VEHTYPE" speed="0.00" pos="2.89" lane="5450857#1_0" slope="0.00"/>
    </timestep>
    <timestep time="89.00">
        <vehicle id="79" x="2863.39" y="3287.45" angle="247.92" type="DEFAULT_VEHTYPE" speed="0.00" pos="2.89" lane="5450857#1_0" slope="0.00"/>
    </timestep>
    <timestep time="90.00">
        <vehicle id="79" x="2861.41" y="3286.45" angle="244.71" type="DEFAULT_VEHTYPE" speed="2.21" pos="1.21" lane=":270087112_0_0" slope="0.00"/>
    </timestep>
    <timestep time="91.00">
        <vehicle id="79" x="2857.55" y="3285.02" angle="248.49" type="DEFAULT_VEHTYPE" speed="4.32" pos="0.71" lane=":3124859539_0_0" slope="0.00"/>
    </timestep>
    <timestep time="92.00">
        <vehicle id="79" x="2852.04" y="3286.50" angle="284.98" type="DEFAULT_VEHTYPE" speed="5.70" pos="1.45" lane=":1505420106_0_0" slope="0.00"/>
    </timestep>
    <timestep time="93.00">
        <vehicle id="79" x="2845.64" y="3290.57" angle="310.78" type="DEFAULT_VEHTYPE" speed="7.80" pos="9.25" lane=":1505420106_0_0" slope="0.00"/>
    </timestep>
    <timestep time="94.00">
        <vehicle id="79" x="2841.12" y="3296.97" angle="325.39" type="DEFAULT_VEHTYPE" speed="7.84" pos="2.70" lane="40493384#3_0" slope="0.00"/>
    </timestep>
    <timestep time="95.00">
        <vehicle id="79" x="2836.48" y="3303.87" angle="326.05" type="DEFAULT_VEHTYPE" speed="8.32" pos="11.02" lane="40493384#3_0" slope="0.00"/>
    </timestep>
    <timestep time="96.00">
        <vehicle id="79" x="2832.11" y="3310.35" angle="326.05" type="DEFAULT_VEHTYPE" speed="7.81" pos="18.83" lane="40493384#3_0" slope="0.00"/>
    </timestep>
    <timestep time="97.00">
        <vehicle id="79" x="2827.75" y="3316.84" angle="326.05" type="DEFAULT_VEHTYPE" speed="7.82" pos="26.66" lane="40493384#3_0" slope="0.00"/>
    </timestep>
    <timestep time="98.00">
        <vehicle id="79" x="2823.10" y="3323.74" angle="326.05" type="DEFAULT_VEHTYPE" speed="8.32" pos="34.97" lane="40493384#3_0" slope="0.00"/>
    </timestep>
    <timestep time="99.00">
        <vehicle id="79" x="2818.66" y="3330.36" angle="326.16" type="DEFAULT_VEHTYPE" speed="7.97" pos="2.48" lane=":5976397643_0_0" slope="0.00"/>
    </timestep>
    <timestep time="100.00">
        <vehicle id="79" x="2814.04" y="3337.27" angle="326.25" type="DEFAULT_VEHTYPE" speed="8.32" pos="3.81" lane="40493384#4_0" slope="0.00"/>
    </timestep>
    <timestep time="101.00">
        <vehicle id="79" x="2809.28" y="3344.39" angle="326.25" type="DEFAULT_VEHTYPE" speed="8.57" pos="12.38" lane="40493384#4_0" slope="0.00"/>
    </timestep>
    <timestep time="102.00">
        <vehicle id="79" x="2805.02" y="3350.77" angle="326.25" type="DEFAULT_VEHTYPE" speed="7.67" pos="20.05" lane="40493384#4_0" slope="0.00"/>
    </timestep>
    <timestep time="103.00">
        <vehicle id="79" x="2800.16" y="3357.98" angle="325.99" type="DEFAULT_VEHTYPE" speed="8.68" pos="1.77" lane="40493384#5_0" slope="0.00"/>
    </timestep>
    <timestep time="104.00">
        <vehicle id="79" x="2795.52" y="3364.81" angle="325.83" type="DEFAULT_VEHTYPE" speed="8.26" pos="10.03" lane="40493384#5_0" slope="0.00"/>
    </timestep>
    <timestep time="105.00">
        <vehicle id="79" x="2790.93" y="3371.58" angle="325.83" type="DEFAULT_VEHTYPE" speed="8.18" pos="18.22" lane="40493384#5_0" slope="0.00"/>
    </timestep>
    <timestep time="106.00">
        <vehicle id="79" x="2785.99" y="3378.86" angle="325.83" type="DEFAULT_VEHTYPE" speed="8.79" pos="27.01" lane="40493384#5_0" slope="0.00"/>
    </timestep>
    <timestep time="107.00">
        <vehicle id="79" x="2781.51" y="3385.44" angle="325.74" type="DEFAULT_VEHTYPE" speed="7.96" pos="3.84" lane=":4994911937_0_0" slope="0.00"/>
    </timestep>
    <timestep time="108.00">
        <vehicle id="79" x="2777.25" y="3391.66" angle="325.53" type="DEFAULT_VEHTYPE" speed="7.55" pos="6.30" lane="510493161_0" slope="0.00"/>
    </timestep>
    <timestep time="109.00">
        <vehicle id="79" x="2772.72" y="3398.25" angle="325.53" type="DEFAULT_VEHTYPE" speed="7.99" pos="14.29" lane="510493161_0" slope="0.00"/>
    </timestep>
    <timestep time="110.00">
        <vehicle id="79" x="2767.80" y="3405.42" angle="325.53" type="DEFAULT_VEHTYPE" speed="8.71" pos="23.00" lane="510493161_0" slope="0.00"/>
    </timestep>
    <timestep time="111.00">
        <vehicle id="79" x="2765.42" y="3408.89" angle="325.53" type="DEFAULT_VEHTYPE" speed="4.21" pos="27.21" lane="510493161_0" slope="0.00"/>
    </timestep>
    <timestep time="112.00">
        <vehicle id="79" x="2761.65" y="3414.36" angle="325.48" type="DEFAULT_VEHTYPE" speed="6.64" pos="5.82" lane=":9325026_4_0" slope="0.00"/>
    </timestep>
    <timestep time="113.00">
        <vehicle id="79" x="2756.88" y="3421.30" angle="325.48" type="DEFAULT_VEHTYPE" speed="8.41" pos="14.23" lane=":9325026_4_0" slope="0.00"/>
    </timestep>
    <timestep time="114.00">
        <vehicle id="79" x="2751.97" y="3428.44" angle="325.46" type="DEFAULT_VEHTYPE" speed="8.67" pos="7.82" lane="40493385#0_0" slope="0.00"/>
    </timestep>
    <timestep time="115.00">
        <vehicle id="79" x="2747.62" y="3434.75" angle="325.46" type="DEFAULT_VEHTYPE" speed="7.66" pos="15.48" lane="40493385#0_0" slope="0.00"/>
    </timestep>
    <timestep time="116.00">
        <vehicle id="79" x="2742.62" y="3442.02" angle="325.46" type="DEFAULT_VEHTYPE" speed="8.83" pos="24.31" lane="40493385#0_0" slope="0.00"/>
    </timestep>
    <timestep time="117.00">
        <vehicle id="79" x="2737.85" y="3448.94" angle="325.46" type="DEFAULT_VEHTYPE" speed="8.40" pos="32.71" lane="40493385#0_0" slope="0.00"/>
    </timestep>
    <timestep time="118.00">
        <vehicle id="79" x="2733.62" y="3455.19" angle="326.05" type="DEFAULT_VEHTYPE" speed="7.71" pos="3.00" lane=":3132143352_0_0" slope="0.00"/>
    </timestep>
    <timestep time="119.00">
        <vehicle id="79" x="2729.08" y="3462.10" angle="326.95" type="DEFAULT_VEHTYPE" speed="8.27" pos="4.60" lane=":26912916_0_0" slope="0.00"/>
    </timestep>
    <timestep time="120.00">
        <vehicle id="79" x="2724.93" y="3468.49" angle="326.99" type="DEFAULT_VEHTYPE" speed="7.61" pos="12.22" lane=":26912916_0_0" slope="0.00"/>
    </timestep>
    <timestep time="121.00">
        <vehicle id="79" x="2720.56" y="3475.08" angle="326.10" type="DEFAULT_VEHTYPE" speed="7.91" pos="0.08" lane="231945290#1_0" slope="0.00"/>
    </timestep>
    <timestep time="122.00">
        <vehicle id="79" x="2715.62" y="3482.18" angle="325.17" type="DEFAULT_VEHTYPE" speed="8.64" pos="8.72" lane="231945290#1_0" slope="0.00"/>
    </timestep>
    <timestep time="123.00">
        <vehicle id="79" x="2711.23" y="3488.49" angle="325.17" type="DEFAULT_VEHTYPE" speed="7.69" pos="16.41" lane="231945290#1_0" slope="0.00"/>
    </timestep>
    <timestep time="124.00">
        <vehicle id="79" x="2706.28" y="3495.60" angle="325.17" type="DEFAULT_VEHTYPE" speed="8.66" pos="25.07" lane="231945290#1_0" slope="0.00"/>
    </timestep>
    <timestep time="125.00">
        <vehicle id="79" x="2701.57" y="3502.37" angle="325.17" type="DEFAULT_VEHTYPE" speed="8.25" pos="33.32" lane="231945290#1_0" slope="0.00"/>
    </timestep>
    <timestep time="126.00">
        <vehicle id="79" x="2699.41" y="3505.48" angle="325.17" type="DEFAULT_VEHTYPE" speed="3.79" pos="37.11" lane="231945290#1_0" slope="0.00"/>
    </timestep>
    <timestep time="127.00">
        <vehicle id="79" x="2695.80" y="3510.71" angle="325.42" type="DEFAULT_VEHTYPE" speed="6.35" pos="5.34" lane=":145349_1_0" slope="0.00"/>
    </timestep>
    <timestep time="128.00">
        <vehicle id="79" x="2691.30" y="3517.25" angle="325.52" type="DEFAULT_VEHTYPE" speed="7.94" pos="2.06" lane="231945290#2_0" slope="0.00"/>
    </timestep>
    <timestep time="129.00">
        <vehicle id="79" x="2686.36" y="3524.48" angle="325.67" type="DEFAULT_VEHTYPE" speed="8.75" pos="10.81" lane="231945290#2_0" slope="0.00"/>
    </timestep>
    <timestep time="130.00">
        <vehicle id="79" x="2681.93" y="3530.97" angle="325.67" type="DEFAULT_VEHTYPE" speed="7.86" pos="18.67" lane="231945290#2_0" slope="0.00"/>
    </timestep>
    <timestep time="131.00">
        <vehicle id="79" x="2677.54" y="3537.39" angle="325.67" type="DEFAULT_VEHTYPE" speed="7.78" pos="26.45" lane="231945290#2_0" slope="0.00"/>
    </timestep>
    <timestep time="132.00">
        <vehicle id="79" x="2672.61" y="3544.63" angle="325.67" type="DEFAULT_VEHTYPE" speed="8.76" pos="35.21" lane="231945290#2_0" slope="0.00"/>
    </timestep>
    <timestep time="133.00">
        <vehicle id="79" x="2668.18" y="3551.10" angle="325.67" type="DEFAULT_VEHTYPE" speed="7.84" pos="43.05" lane="231945290#2_0" slope="0.00"/>
    </timestep>
    <timestep time="134.00">
        <vehicle id="79" x="2663.61" y="3557.80" angle="325.67" type="DEFAULT_VEHTYPE" speed="8.11" pos="51.16" lane="231945290#2_0" slope="0.00"/>
    </timestep>
    <timestep time="135.00">
        <vehicle id="79" x="2659.05" y="3564.48" angle="325.67" type="DEFAULT_VEHTYPE" speed="8.10" pos="59.26" lane="231945290#2_0" slope="0.00"/>
    </timestep>
    <timestep time="136.00">
        <vehicle id="79" x="2654.10" y="3571.73" angle="325.67" type="DEFAULT_VEHTYPE" speed="8.77" pos="68.03" lane="231945290#2_0" slope="0.00"/>
    </timestep>
    <timestep time="137.00">
        <vehicle id="79" x="2649.28" y="3578.84" angle="326.00" type="DEFAULT_VEHTYPE" speed="8.59" pos="2.51" lane=":26232925_1_0" slope="0.00"/>
    </timestep>
    <timestep time="138.00">
        <vehicle id="79" x="2644.53" y="3586.00" angle="326.55" type="DEFAULT_VEHTYPE" speed="8.59" pos="2.07" lane="231945290#3_0" slope="0.00"/>
    </timestep>
    <timestep time="139.00">
        <vehicle id="79" x="2639.91" y="3593.08" angle="326.87" type="DEFAULT_VEHTYPE" speed="8.45" pos="10.51" lane="231945290#3_0" slope="0.00"/>
    </timestep>
    <timestep time="140.00">
        <vehicle id="79" x="2635.13" y="3600.40" angle="326.87" type="DEFAULT_VEHTYPE" speed="8.74" pos="19.26" lane="231945290#3_0" slope="0.00"/>
    </timestep>
    <timestep time="141.00">
        <vehicle id="79" x="2630.45" y="3607.57" angle="326.87" type="DEFAULT_VEHTYPE" speed="8.57" pos="27.83" lane="231945290#3_0" slope="0.00"/>
    </timestep>
    <timestep time="142.00">
        <vehicle id="79" x="2625.79" y="3614.70" angle="326.87" type="DEFAULT_VEHTYPE" speed="8.52" pos="36.34" lane="231945290#3_0" slope="0.00"/>
    </timestep>
    <timestep time="143.00">
        <vehicle id="79" x="2620.60" y="3621.48" angle="319.43" type="DEFAULT_VEHTYPE" speed="8.56" pos="4.57" lane=":1318665562_1_0" slope="0.00"/>
    </timestep>
    <timestep time="144.00">
        <vehicle id="79" x="2614.67" y="3626.20" angle="307.23" type="DEFAULT_VEHTYPE" speed="7.59" pos="12.16" lane=":1318665562_1_0" slope="0.00"/>
    </timestep>
    <timestep time="145.00">
        <vehicle id="79" x="2608.56" y="3631.14" angle="309.87" type="DEFAULT_VEHTYPE" speed="7.85" pos="4.65" lane=":1505400788_0_0" slope="0.00"/>
    </timestep>
    <timestep time="146.00">
        <vehicle id="79" x="2602.28" y="3636.45" angle="310.42" type="DEFAULT_VEHTYPE" speed="8.22" pos="0.51" lane="137238867#2_0" slope="0.00"/>
    </timestep>
    <timestep time="147.00">
        <vehicle id="79" x="2595.97" y="3642.61" angle="314.27" type="DEFAULT_VEHTYPE" speed="8.83" pos="9.34" lane="137238867#2_0" slope="0.00"/>
    </timestep>
    <timestep time="148.00">
        <vehicle id="79" x="2591.63" y="3646.84" angle="314.27" type="DEFAULT_VEHTYPE" speed="6.06" pos="15.40" lane="137238867#2_0" slope="0.00"/>
    </timestep>
    <timestep time="149.00">
        <vehicle id="79" x="2585.96" y="3652.11" angle="312.36" type="DEFAULT_VEHTYPE" speed="7.74" pos="5.27" lane=":30116834_0_0" slope="0.00"/>
    </timestep>
    <timestep time="150.00">
        <vehicle id="79" x="2578.74" y="3659.12" angle="315.76" type="DEFAULT_VEHTYPE" speed="10.06" pos="15.34" lane=":30116834_0_0" slope="0.00"/>
    </timestep>
    <timestep time="151.00">
        <vehicle id="79" x="2571.53" y="3668.24" angle="323.74" type="DEFAULT_VEHTYPE" speed="11.64" pos="2.43" lane="4726785#1_0" slope="0.00"/>
    </timestep>
    <timestep time="152.00">
        <vehicle id="79" x="2564.01" y="3679.28" angle="325.71" type="DEFAULT_VEHTYPE" speed="13.35" pos="15.78" lane="4726785#1_0" slope="0.00"/>
    </timestep>
    <timestep time="153.00">
        <vehicle id="79" x="2555.95" y="3691.10" angle="325.71" type="DEFAULT_VEHTYPE" speed="14.32" pos="30.10" lane="4726785#1_0" slope="0.00"/>
    </timestep>
    <timestep time="154.00">
        <vehicle id="79" x="2548.30" y="3702.32" angle="325.71" type="DEFAULT_VEHTYPE" speed="13.57" pos="43.67" lane="4726785#1_0" slope="0.00"/>
    </timestep>
    <timestep time="155.00">
        <vehicle id="79" x="2540.67" y="3713.51" angle="325.71" type="DEFAULT_VEHTYPE" speed="13.54" pos="57.21" lane="4726785#1_0" slope="0.00"/>
    </timestep>
    <timestep time="156.00">
        <vehicle id="79" x="2532.37" y="3725.63" angle="325.41" type="DEFAULT_VEHTYPE" speed="14.69" pos="4.15" lane=":349729109_1_0" slope="0.00"/>
    </timestep>
    <timestep time="157.00">
        <vehicle id="79" x="2524.43" y="3737.13" angle="325.35" type="DEFAULT_VEHTYPE" speed="13.97" pos="18.12" lane=":349729109_1_0" slope="0.00"/>
    </timestep>
    <timestep time="158.00">
        <vehicle id="79" x="2516.08" y="3749.20" angle="325.37" type="DEFAULT_VEHTYPE" speed="14.67" pos="2.81" lane="856293284_0" slope="0.00"/>
    </timestep>
    <timestep time="159.00">
        <vehicle id="79" x="2508.31" y="3760.46" angle="325.38" type="DEFAULT_VEHTYPE" speed="13.67" pos="16.48" lane="856293284_0" slope="0.00"/>
    </timestep>
    <timestep time="160.00">
        <vehicle id="79" x="2500.49" y="3771.79" angle="325.38" type="DEFAULT_VEHTYPE" speed="13.77" pos="30.25" lane="856293284_0" slope="0.00"/>
    </timestep>
    <timestep time="161.00">
        <vehicle id="79" x="2492.54" y="3783.30" angle="325.38" type="DEFAULT_VEHTYPE" speed="13.99" pos="44.24" lane="856293284_0" slope="0.00"/>
    </timestep>
    <timestep time="162.00">
        <vehicle id="79" x="2484.79" y="3794.52" angle="325.38" type="DEFAULT_VEHTYPE" speed="13.64" pos="57.88" lane="856293284_0" slope="0.00"/>
    </timestep>
    <timestep time="163.00">
        <vehicle id="79" x="2476.74" y="3806.19" angle="325.38" type="DEFAULT_VEHTYPE" speed="14.17" pos="72.05" lane="856293284_0" slope="0.00"/>
    </timestep>
    <timestep time="164.00">
        <vehicle id="79" x="2468.65" y="3817.90" angle="325.38" type="DEFAULT_VEHTYPE" speed="14.24" pos="86.29" lane="856293284_0" slope="0.00"/>
    </timestep>
    <timestep time="165.00">
        <vehicle id="79" x="2460.97" y="3829.03" angle="325.38" type="DEFAULT_VEHTYPE" speed="13.52" pos="99.81" lane="856293284_0" slope="0.00"/>
    </timestep>
    <timestep time="166.00">
        <vehicle id="79" x="2452.93" y="3840.68" angle="325.38" type="DEFAULT_VEHTYPE" speed="14.16" pos="113.97" lane="856293284_0" slope="0.00"/>
    </timestep>
    <timestep time="167.00">
        <vehicle id="79" x="2444.77" y="3852.49" angle="325.38" type="DEFAULT_VEHTYPE" speed="14.36" pos="128.33" lane="856293284_0" slope="0.00"/>
    </timestep>
    <timestep time="168.00">
        <vehicle id="79" x="2437.11" y="3863.59" angle="325.38" type="DEFAULT_VEHTYPE" speed="13.48" pos="141.81" lane="856293284_0" slope="0.00"/>
    </timestep>
    <timestep time="169.00">
        <vehicle id="79" x="2428.81" y="3875.61" angle="325.38" type="DEFAULT_VEHTYPE" speed="14.60" pos="156.41" lane="856293284_0" slope="0.00"/>
    </timestep>
    <timestep time="170.00">
        <vehicle id="79" x="2420.70" y="3887.37" angle="325.46" type="DEFAULT_VEHTYPE" speed="14.30" pos="1.21" lane="4726717_0" slope="0.00"/>
    </timestep>
    <timestep time="171.00">
        <vehicle id="79" x="2412.52" y="3899.39" angle="325.78" type="DEFAULT_VEHTYPE" speed="14.54" pos="15.75" lane="4726717_0" slope="0.00"/>
    </timestep>
    <timestep time="172.00">
        <vehicle id="79" x="2404.57" y="3911.09" angle="325.78" type="DEFAULT_VEHTYPE" speed="14.15" pos="29.89" lane="4726717_0" slope="0.00"/>
    </timestep>
    <timestep time="173.00">
        <vehicle id="79" x="2393.98" y="3920.97" angle="325.78" type="DEFAULT_VEHTYPE" speed="14.13" pos="44.03" lane="4726717_1" slope="0.00"/>
    </timestep>
    <timestep time="174.00">
        <vehicle id="79" x="2386.17" y="3932.45" angle="325.78" type="DEFAULT_VEHTYPE" speed="13.88" pos="57.90" lane="4726717_1" slope="0.00"/>
    </timestep>
    <timestep time="175.00">
        <vehicle id="79" x="2378.11" y="3944.31" angle="325.78" type="DEFAULT_VEHTYPE" speed="14.34" pos="72.24" lane="4726717_1" slope="0.00"/>
    </timestep>
    <timestep time="176.00">
        <vehicle id="79" x="2370.35" y="3955.72" angle="325.78" type="DEFAULT_VEHTYPE" speed="13.80" pos="86.05" lane="4726717_1" slope="0.00"/>
    </timestep>
    <timestep time="177.00">
        <vehicle id="79" x="2362.37" y="3967.45" angle="325.78" type="DEFAULT_VEHTYPE" speed="14.18" pos="100.23" lane="4726717_1" slope="0.00"/>
    </timestep>
    <timestep time="178.00">
        <vehicle id="79" x="2354.55" y="3978.95" angle="325.78" type="DEFAULT_VEHTYPE" speed="13.91" pos="114.14" lane="4726717_1" slope="0.00"/>
    </timestep>
    <timestep time="179.00">
        <vehicle id="79" x="2346.90" y="3990.19" angle="325.78" type="DEFAULT_VEHTYPE" speed="13.59" pos="127.73" lane="4726717_1" slope="0.00"/>
    </timestep>
    <timestep time="180.00">
        <vehicle id="79" x="2339.09" y="4001.68" angle="325.78" type="DEFAULT_VEHTYPE" speed="13.90" pos="141.63" lane="4726717_1" slope="0.00"/>
    </timestep>
    <timestep time="181.00">
        <vehicle id="79" x="2331.17" y="4013.32" angle="325.78" type="DEFAULT_VEHTYPE" speed="14.08" pos="155.71" lane="4726717_1" slope="0.00"/>
    </timestep>
    <timestep time="182.00">
        <vehicle id="79" x="2323.40" y="4024.74" angle="325.78" type="DEFAULT_VEHTYPE" speed="13.81" pos="169.52" lane="4726717_1" slope="0.00"/>
    </timestep>
    <timestep time="183.00">
        <vehicle id="79" x="2315.55" y="4036.29" angle="325.78" type="DEFAULT_VEHTYPE" speed="13.96" pos="183.48" lane="4726717_1" slope="0.00"/>
    </timestep>
    <timestep time="184.00">
        <vehicle id="79" x="2307.33" y="4048.37" angle="325.78" type="DEFAULT_VEHTYPE" speed="14.61" pos="198.09" lane="4726717_1" slope="0.00"/>
    </timestep>
    <timestep time="185.00">
        <vehicle id="79" x="2299.42" y="4060.00" angle="325.78" type="DEFAULT_VEHTYPE" speed="14.07" pos="212.16" lane="4726717_1" slope="0.00"/>
    </timestep>
    <timestep time="186.00">
        <vehicle id="79" x="2291.15" y="4072.16" angle="325.78" type="DEFAULT_VEHTYPE" speed="14.71" pos="226.87" lane="4726717_1" slope="0.00"/>