<?xml version="1.0" encoding="UTF-8"?>

<!-- generated on 2023-07-14 01:29:46 by Eclipse SUMO sumo Version 1.18.0
<configuration xmlns:xsi="http://www.w3.org/2001/XMLSchema-instance" xsi:noNamespaceSchemaLocation="http://sumo.dlr.de/xsd/sumoConfiguration.xsd">

    <input>
        <net-file value="/Users/amanzer/Desktop/memo/sumo-simulation/ixelles/ixelles.net.xml"/>
        <route-files value="/Users/amanzer/Desktop/memo/sumo-simulation/ixelles/ixelles.routes.xml"/>
        <additional-files value="/Users/amanzer/Desktop/memo/sumo-simulation/ixelles/ixelles.poly.xml"/>
    </input>

    <output>
        <tripinfo-output value="tripinfo1.xml"/>
        <edgedata-output value="edgeData1.xml"/>
    </output>

    <processing>
        <ignore-route-errors value="true"/>
    </processing>

</configuration>
-->

<tripinfos xmlns:xsi="http://www.w3.org/2001/XMLSchema-instance" xsi:noNamespaceSchemaLocation="http://sumo.dlr.de/xsd/tripinfo_file.xsd">
    <tripinfo id="126" depart="63.00" departLane="-147764415#2_0" departPos="5.10" departSpeed="0.00" departDelay="0.00" arrival="115.00" arrivalLane="147764368#2_0" arrivalPos="0.20" arrivalSpeed="8.83" duration="52.00" routeLength="386.03" waitingTime="0.00" waitingCount="0" stopTime="0.00" timeLoss="7.60" rerouteNo="0" devices="tripinfo_126" vType="DEFAULT_VEHTYPE" speedFactor="1.07" vaporized=""/>
    <tripinfo id="37" depart="19.00" departLane="30799968_0" departPos="5.10" departSpeed="0.00" departDelay="0.50" arrival="123.00" arrivalLane="141632618#1_0" arrivalPos="95.62" arrivalSpeed="8.33" duration="104.00" routeLength="690.40" waitingTime="3.00" waitingCount="1" stopTime="0.00" timeLoss="19.22" rerouteNo="0" devices="tripinfo_37" vType="DEFAULT_VEHTYPE" speedFactor="1.02" vaporized=""/>
    <tripinfo id="12" depart="6.00" departLane="8380039#1_0" departPos="5.10" departSpeed="0.00" departDelay="0.00" arrival="126.00" arrivalLane="123929563#2_1" arrivalPos="0.20" arrivalSpeed="7.94" duration="120.00" routeLength="930.89" waitingTime="0.00" waitingCount="0" stopTime="0.00" timeLoss="12.17" rerouteNo="0" devices="tripinfo_12" vType="DEFAULT_VEHTYPE" speedFactor="1.05" vaporized=""/>
    <tripinfo id="188" depart="94.00" departLane="31233132#0_0" departPos="5.10" departSpeed="0.00" departDelay="0.00" arrival="136.00" arrivalLane="117228491#0_0" arrivalPos="0.20" arrivalSpeed="3.94" duration="42.00" routeLength="311.11" waitingTime="0.00" waitingCount="0" stopTime="0.00" timeLoss="5.38" rerouteNo="0" devices="tripinfo_188" vType="DEFAULT_VEHTYPE" speedFactor="1.03" vaporized=""/>
    <tripinfo id="130" depart="65.00" departLane="62020115#1_0" departPos="5.10" departSpeed="0.00" departDelay="0.00" arrival="137.00" arrivalLane="62020112#0_0" arrivalPos="0.20" arrivalSpeed="7.22" duration="72.00" routeLength="369.28" waitingTime="25.00" waitingCount="2" stopTime="0.00" timeLoss="40.42" rerouteNo="0" devices="tripinfo_130" vType="DEFAULT_VEHTYPE" speedFactor="1.03" vaporized=""/>
    <tripinfo id="18" depart="9.00" departLane="47999871_0" departPos="5.10" departSpeed="0.00" departDelay="0.00" arrival="148.00" arrivalLane="30324793#0_0" arrivalPos="26.53" arrivalSpeed="7.08" duration="139.00" routeLength="956.92" waitingTime="0.00" waitingCount="0" stopTime="0.00" timeLoss="15.32" rerouteNo="0" devices="tripinfo_18" vType="DEFAULT_VEHTYPE" speedFactor="0.94" vaporized=""/>
    <tripinfo id="90" depart="45.00" departLane="395800498#1_0" departPos="0.20" departSpeed="0.00" departDelay="0.00" arrival="149.00" arrivalLane="31508062#1_0" arrivalPos="80.91" arrivalSpeed="8.99" duration="104.00" routeLength="942.46" waitingTime="3.00" waitingCount="1" stopTime="0.00" timeLoss="20.57" rerouteNo="0" devices="tripinfo_90" vType="DEFAULT_VEHTYPE" speedFactor="1.15" vaporized=""/>
    <tripinfo id="20" depart="10.00" departLane="35378109#2_0" departPos="3.57" departSpeed="0.00" departDelay="0.00" arrival="151.00" arrivalLane="-141632618#2_0" arrivalPos="3.71" arrivalSpeed="7.98" duration="141.00" routeLength="1074.47" waitingTime="0.00" waitingCount="0" stopTime="0.00" timeLoss="14.03" rerouteNo="0" devices="tripinfo_20" vType="DEFAULT_VEHTYPE" speedFactor="1.02" vaporized=""/>
    <tripinfo id="57" depart="29.00" departLane="715017599#3_0" departPos="0.20" departSpeed="0.00" departDelay="0.50" arrival="163.00" arrivalLane="589841814#0_0" arrivalPos="102.25" arrivalSpeed="13.44" duration="134.00" routeLength="1185.99" waitingTime="0.00" waitingCount="0" stopTime="0.00" timeLoss="16.98" rerouteNo="0" devices="tripinfo_57" vType="DEFAULT_VEHTYPE" speedFactor="1.00" vaporized=""/>
    <tripinfo id="15" depart="8.00" departLane="463468245#0_0" departPos="5.10" departSpeed="0.00" departDelay="0.50" arrival="165.00" arrivalLane="39625951#1_0" arrivalPos="26.09" arrivalSpeed="6.72" duration="157.00" routeLength="1052.10" waitingTime="1.00" waitingCount="1" stopTime="0.00" timeLoss="19.56" rerouteNo="0" devices="tripinfo_15" vType="DEFAULT_VEHTYPE" speedFactor="0.93" vaporized=""/>
    <tripinfo id="43" depart="22.00" departLane="97680150#4_0" departPos="0.20" departSpeed="0.00" departDelay="0.50" arrival="171.00" arrivalLane="183454204#0_1" arrivalPos="0.20" arrivalSpeed="6.06" duration="149.00" routeLength="1683.98" waitingTime="0.00" waitingCount="0" stopTime="0.00" timeLoss="16.06" rerouteNo="0" devices="tripinfo_43" vType="DEFAULT_VEHTYPE" speedFactor="0.96" vaporized=""/>
    <tripinfo id="62" depart="31.00" departLane="-100612596#0_0" departPos="5.10" departSpeed="0.00" departDelay="0.00" arrival="171.00" arrivalLane="1153265597#0_0" arrivalPos="0.93" arrivalSpeed="6.63" duration="140.00" routeLength="1384.54" waitingTime="0.00" waitingCount="0" stopTime="0.00" timeLoss="11.61" rerouteNo="0" devices="tripinfo_62" vType="DEFAULT_VEHTYPE" speedFactor="1.02" vaporized=""/>
    <tripinfo id="58" depart="29.00" departLane="1062939422#1_0" departPos="0.20" departSpeed="0.00" departDelay="0.00" arrival="172.00" arrivalLane="307372342#2_0" arrivalPos="0.10" arrivalSpeed="7.29" duration="143.00" routeLength="967.18" waitingTime="2.00" waitingCount="1" stopTime="0.00" timeLoss="24.87" rerouteNo="0" devices="tripinfo_58" vType="DEFAULT_VEHTYPE" speedFactor="1.00" vaporized=""/>
    <tripinfo id="103" depart="52.00" departLane="14346827#0_0" departPos="5.10" departSpeed="0.00" departDelay="0.50" arrival="178.00" arrivalLane="-144313995#2_0" arrivalPos="0.20" arrivalSpeed="8.16" duration="126.00" routeLength="922.72" waitingTime="0.00" waitingCount="0" stopTime="0.00" timeLoss="13.76" rerouteNo="0" devices="tripinfo_103" vType="DEFAULT_VEHTYPE" speedFactor="1.01" vaporized=""/>
    <tripinfo id="46" depart="23.00" departLane="4318229#2_0" departPos="0.20" departSpeed="0.00" departDelay="0.00" arrival="184.00" arrivalLane="14375117#0_0" arrivalPos="114.65" arrivalSpeed="7.99" duration="161.00" routeLength="1725.55" waitingTime="4.00" waitingCount="1" stopTime="0.00" timeLoss="30.20" rerouteNo="0" devices="tripinfo_46" vType="DEFAULT_VEHTYPE" speedFactor="1.04" vaporized=""/>
    <tripinfo id="172" depart="86.00" departLane="1157536730_0" departPos="4.87" departSpeed="0.00" departDelay="0.00" arrival="187.00" arrivalLane="549347962#1_0" arrivalPos="0.20" arrivalSpeed="8.81" duration="101.00" routeLength="803.15" waitingTime="0.00" waitingCount="0" stopTime="0.00" timeLoss="12.83" rerouteNo="0" devices="tripinfo_172" vType="DEFAULT_VEHTYPE" speedFactor="1.13" vaporized=""/>
    <tripinfo id="174" depart="87.00" departLane="30737919#1_0" departPos="5.10" departSpeed="0.00" departDelay="0.00" arrival="190.00" arrivalLane="14346842#0_0" arrivalPos="0.20" arrivalSpeed="5.60" duration="103.00" routeLength="686.16" waitingTime="0.00" waitingCount="0" stopTime="0.00" timeLoss="11.51" rerouteNo="0" devices="tripinfo_174" vType="DEFAULT_VEHTYPE" speedFactor="0.91" vaporized=""/>
    <tripinfo id="106" depart="53.00" departLane="14686743#2_0" departPos="5.10" departSpeed="0.00" departDelay="0.00" arrival="192.00" arrivalLane="14393290#1_0" arrivalPos="3.67" arrivalSpeed="9.10" duration="139.00" routeLength="1120.44" waitingTime="0.00" waitingCount="0" stopTime="0.00" timeLoss="14.09" rerouteNo="0" devices="tripinfo_106" vType="DEFAULT_VEHTYPE" speedFactor="1.10" vaporized=""/>
    <tripinfo id="65" depart="33.00" departLane="1083809476#3_0" departPos="0.20" departSpeed="0.00" departDelay="0.50" arrival="194.00" arrivalLane="-14375121#1_0" arrivalPos="0.20" arrivalSpeed="8.81" duration="161.00" routeLength="1281.97" waitingTime="3.00" waitingCount="1" stopTime="0.00" timeLoss="22.62" rerouteNo="0" devices="tripinfo_65" vType="DEFAULT_VEHTYPE" speedFactor="1.12" vaporized=""/>
    <tripinfo id="101" depart="51.00" departLane="524150320#1_0" departPos="3.26" departSpeed="0.00" departDelay="0.50" arrival="202.00" arrivalLane="-329363827#1_0" arrivalPos="47.81" arrivalSpeed="7.86" duration="151.00" routeLength="1173.72" waitingTime="0.00" waitingCount="0" stopTime="0.00" timeLoss="17.97" rerouteNo="0" devices="tripinfo_101" vType="DEFAULT_VEHTYPE" speedFactor="1.09" vaporized=""/>
    <tripinfo id="73" depart="37.00" departLane="23084263#1_0" departPos="5.10" departSpeed="0.00" departDelay="0.50" arrival="204.00" arrivalLane="39642340#0_0" arrivalPos="0.20" arrivalSpeed="7.64" duration="167.00" routeLength="1874.08" waitingTime="0.00" waitingCount="0" stopTime="0.00" timeLoss="13.49" rerouteNo="0" devices="tripinfo_73" vType="DEFAULT_VEHTYPE" speedFactor="1.02" vaporized=""/>
    <tripinfo id="10" depart="5.00" departLane="452101329#0_0" departPos="0.35" departSpeed="0.00" departDelay="0.00" arrival="205.00" arrivalLane="339603045#4_0" arrivalPos="110.76" arrivalSpeed="14.60" duration="200.00" routeLength="2045.51" waitingTime="0.00" waitingCount="0" stopTime="0.00" timeLoss="17.04" rerouteNo="0" devices="tripinfo_10" vType="DEFAULT_VEHTYPE" speedFactor="1.09" vaporized=""/>
    <tripinfo id="35" depart="18.00" departLane="-4309941#2_0" departPos="5.10" departSpeed="0.00" departDelay="0.50" arrival="207.00" arrivalLane="8240917#5_0" arrivalPos="0.20" arrivalSpeed="8.92" duration="189.00" routeLength="2160.93" waitingTime="0.00" waitingCount="0" stopTime="0.00" timeLoss="19.00" rerouteNo="0" devices="tripinfo_35" vType="DEFAULT_VEHTYPE" speedFactor="1.17" vaporized=""/>
    <tripinfo id="391" depart="196.00" departLane="36801001#2_0" departPos="5.10" departSpeed="0.00" departDelay="0.50" arrival="212.00" arrivalLane="183370113#1_0" arrivalPos="0.20" arrivalSpeed="8.52" duration="16.00" routeLength="145.79" waitingTime="0.00" waitingCount="0" stopTime="0.00" timeLoss="5.15" rerouteNo="0" devices="tripinfo_391" vType="DEFAULT_VEHTYPE" speedFactor="1.10" vaporized=""/>
    <tripinfo id="240" depart="120.00" departLane="13767958#2_0" departPos="0.13" departSpeed="0.00" departDelay="0.00" arrival="215.00" arrivalLane="-1078796766#2_0" arrivalPos="83.27" arrivalSpeed="7.88" duration="95.00" routeLength="750.01" waitingTime="0.00" waitingCount="0" stopTime="0.00" timeLoss="12.41" rerouteNo="0" devices="tripinfo_240" vType="DEFAULT_VEHTYPE" speedFactor="0.99" vaporized=""/>
    <tripinfo id="11" depart="6.00" departLane="124862962_0" departPos="5.10" departSpeed="0.00" departDelay="0.50" arrival="217.00" arrivalLane="-31411680#2_0" arrivalPos="24.22" arrivalSpeed="7.33" duration="211.00" routeLength="1676.93" waitingTime="0.00" waitingCount="0" stopTime="0.00" timeLoss="29.29" rerouteNo="0" devices="tripinfo_11" vType="DEFAULT_VEHTYPE" speedFactor="1.03" vaporized=""/>
    <tripinfo id="219" depart="110.00" departLane="147645130#2_0" departPos="5.10" departSpeed="0.00" departDelay="0.50" arrival="220.00" arrivalLane="4441059#0_0" arrivalPos="276.42" arrivalSpeed="12.61" duration="110.00" routeLength="1155.84" waitingTime="1.00" waitingCount="1" stopTime="0.00" timeLoss="14.33" rerouteNo="0" devices="tripinfo_219" vType="DEFAULT_VEHTYPE" speedFactor="0.96" vaporized=""/>
    <tripinfo id="340" depart="170.00" departLane="308431184#1_0" departPos="0.20" departSpeed="0.00" departDelay="0.00" arrival="220.00" arrivalLane="-31431343#1_0" arrivalPos="1.11" arrivalSpeed="6.75" duration="50.00" routeLength="328.34" waitingTime="0.00" waitingCount="0" stopTime="0.00" timeLoss="5.30" rerouteNo="0" devices="tripinfo_340" vType="DEFAULT_VEHTYPE" speedFactor="0.90" vaporized=""/>
    <tripinfo id="33" depart="17.00" departLane="-510491860#1_0" departPos="5.10" departSpeed="0.00" departDelay="0.50" arrival="231.00" arrivalLane="-13765123#0_0" arrivalPos="0.27" arrivalSpeed="8.31" duration="214.00" routeLength="1533.74" waitingTime="0.00" waitingCount="0" stopTime="0.00" timeLoss="29.02" rerouteNo="0" devices="tripinfo_33" vType="DEFAULT_VEHTYPE" speedFactor="1.01" vaporized=""/>
    <tripinfo id="285" depart="143.00" departLane="35830442#1_0" departPos="5.10" departSpeed="0.00" departDelay="0.50" arrival="231.00" arrivalLane="14453613#1_0" arrivalPos="14.20" arrivalSpeed="5.93" duration="88.00" routeLength="518.84" waitingTime="0.00" waitingCount="0" stopTime="0.00" timeLoss="12.82" rerouteNo="0" devices="tripinfo_285" vType="DEFAULT_VEHTYPE" speedFactor="0.85" vaporized=""/>
    <tripinfo id="133" depart="67.00" departLane="292267943#1_0" departPos="4.21" departSpeed="0.00" departDelay="0.50" arrival="234.00" arrivalLane="931367568#1_0" arrivalPos="83.15" arrivalSpeed="8.27" duration="167.00" routeLength="1305.06" waitingTime="0.00" waitingCount="0" stopTime="0.00" timeLoss="17.18" rerouteNo="0" devices="tripinfo_133" vType="DEFAULT_VEHTYPE" speedFactor="1.06" vaporized=""/>
    <tripinfo id="339" depart="170.00" departLane="-4306846#3_0" departPos="5.10" departSpeed="0.00" departDelay="0.50" arrival="236.00" arrivalLane="-4318237#1_0" arrivalPos="0.25" arrivalSpeed="5.99" duration="66.00" routeLength="357.21" waitingTime="6.00" waitingCount="3" stopTime="0.00" timeLoss="22.88" rerouteNo="0" devices="tripinfo_339" vType="DEFAULT_VEHTYPE" speedFactor="1.00" vaporized=""/>
    <tripinfo id="129" depart="65.00" departLane="-8250521#2_0" departPos="0.20" departSpeed="0.00" departDelay="0.50" arrival="243.00" arrivalLane="8140188#6_0" arrivalPos="101.26" arrivalSpeed="9.01" duration="178.00" routeLength="1726.54" waitingTime="3.00" waitingCount="1" stopTime="0.00" timeLoss="21.61" rerouteNo="0" devices="tripinfo_129" vType="DEFAULT_VEHTYPE" speedFactor="1.10" vaporized=""/>
    <tripinfo id="164" depart="82.00" departLane="4441059#1_0" departPos="5.10" departSpeed="0.00" departDelay="0.00" arrival="244.00" arrivalLane="548457220#2_1" arrivalPos="0.20" arrivalSpeed="8.25" duration="162.00" routeLength="1855.91" waitingTime="3.00" waitingCount="1" stopTime="0.00" timeLoss="27.61" rerouteNo="0" devices="tripinfo_164" vType="DEFAULT_VEHTYPE" speedFactor="1.12" vaporized=""/>
    <tripinfo id="14" depart="7.00" departLane="520534105#2_0" departPos="0.20" departSpeed="0.00" departDelay="0.00" arrival="246.00" arrivalLane="29023871#10_0" arrivalPos="84.05" arrivalSpeed="7.45" duration="239.00" routeLength="1696.03" waitingTime="2.00" waitingCount="1" stopTime="0.00" timeLoss="31.23" rerouteNo="0" devices="tripinfo_14" vType="DEFAULT_VEHTYPE" speedFactor="0.99" vaporized=""/>
    <tripinfo id="114" depart="57.00" departLane="-31431101#1_0" departPos="5.10" departSpeed="0.00" departDelay="0.00" arrival="247.00" arrivalLane="8382354#2_0" arrivalPos="15.03" arrivalSpeed="8.06" duration="190.00" routeLength="1443.28" waitingTime="0.00" waitingCount="0" stopTime="0.00" timeLoss="23.22" rerouteNo="0" devices="tripinfo_114" vType="DEFAULT_VEHTYPE" speedFactor="1.03" vaporized=""/>
    <tripinfo id="86" depart="43.00" departLane="150208397#1_0" departPos="0.20" departSpeed="0.00" departDelay="0.00" arrival="253.00" arrivalLane="4308723#8_0" arrivalPos="160.24" arrivalSpeed="8.21" duration="210.00" routeLength="1762.67" waitingTime="0.00" waitingCount="0" stopTime="0.00" timeLoss="25.12" rerouteNo="0" devices="tripinfo_86" vType="DEFAULT_VEHTYPE" speedFactor="1.00" vaporized=""/>
    <tripinfo id="142" depart="71.00" departLane="159636084#3_0" departPos="0.20" departSpeed="0.00" departDelay="0.00" arrival="255.00" arrivalLane="690893939#0_0" arrivalPos="25.24" arrivalSpeed="13.74" duration="184.00" routeLength="2242.90" waitingTime="0.00" waitingCount="0" stopTime="0.00" timeLoss="17.52" rerouteNo="0" devices="tripinfo_142" vType="DEFAULT_VEHTYPE" speedFactor="1.04" vaporized=""/>
    <tripinfo id="22" depart="11.00" departLane="-150275986#2_0" departPos="5.10" departSpeed="0.00" departDelay="0.00" arrival="258.00" arrivalLane="-532686064#1_0" arrivalPos="0.25" arrivalSpeed="4.75" duration="247.00" routeLength="1841.05" waitingTime="0.00" waitingCount="0" stopTime="0.00" timeLoss="26.70" rerouteNo="0" devices="tripinfo_22" vType="DEFAULT_VEHTYPE" speedFactor="1.01" vaporized=""/>
    <tripinfo id="27" depart="14.00" departLane="30766027_0" departPos="5.10" departSpeed="0.00" departDelay="0.50" arrival="260.00" arrivalLane="291878380#2_0" arrivalPos="4.67" arrivalSpeed="7.01" duration="246.00" routeLength="2152.88" waitingTime="0.00" waitingCount="0" stopTime="0.00" timeLoss="27.91" rerouteNo="0" devices="tripinfo_27" vType="DEFAULT_VEHTYPE" speedFactor="0.92" vaporized=""/>
    <tripinfo id="85" depart="43.00" departLane="8144191#1_0" departPos="5.10" departSpeed="0.00" departDelay="0.50" arrival="262.00" arrivalLane="240549302#1_0" arrivalPos="204.19" arrivalSpeed="8.11" duration="219.00" routeLength="2348.78" waitingTime="0.00" waitingCount="0" stopTime="0.00" timeLoss="18.82" rerouteNo="0" devices="tripinfo_85" vType="DEFAULT_VEHTYPE" speedFactor="1.03" vaporized=""/>
    <tripinfo id="222" depart="111.00" departLane="636940958#2_0" departPos="0.20" departSpeed="0.00" departDelay="0.00" arrival="262.00" arrivalLane="30093368#2_0" arrivalPos="0.20" arrivalSpeed="7.82" duration="151.00" routeLength="1154.56" waitingTime="0.00" waitingCount="0" stopTime="0.00" timeLoss="15.34" rerouteNo="0" devices="tripinfo_222" vType="DEFAULT_VEHTYPE" speedFactor="1.04" vaporized=""/>
    <tripinfo id="4" depart="2.00" departLane="14373057#1_0" departPos="5.10" departSpeed="0.00" departDelay="0.00" arrival="263.00" arrivalLane="-13764249#2_0" arrivalPos="112.36" arrivalSpeed="8.04" duration="261.00" routeLength="1966.75" waitingTime="0.00" waitingCount="0" stopTime="0.00" timeLoss="38.26" rerouteNo="0" devices="tripinfo_4" vType="DEFAULT_VEHTYPE" speedFactor="1.03" vaporized=""/>
    <tripinfo id="84" depart="42.00" departLane="-4426064#0_0" departPos="5.10" departSpeed="0.00" departDelay="0.00" arrival="268.00" arrivalLane="-27861270#3_0" arrivalPos="0.20" arrivalSpeed="8.72" duration="226.00" routeLength="1812.97" waitingTime="0.00" waitingCount="0" stopTime="0.00" timeLoss="24.03" rerouteNo="0" devices="tripinfo_84" vType="DEFAULT_VEHTYPE" speedFactor="1.09" vaporized=""/>
    <tripinfo id="355" depart="178.00" departLane="328023152#2_0" departPos="0.20" departSpeed="0.00" departDelay="0.50" arrival="271.00" arrivalLane="34497369#3_1" arrivalPos="0.20" arrivalSpeed="12.72" duration="93.00" routeLength="896.81" waitingTime="0.00" waitingCount="0" stopTime="0.00" timeLoss="10.67" rerouteNo="0" devices="tripinfo_355" vType="DEFAULT_VEHTYPE" speedFactor="0.95" vaporized=""/>
    <tripinfo id="1" depart="1.00" departLane="-8384930#0_0" departPos="0.20" departSpeed="0.00" departDelay="0.50" arrival="272.00" arrivalLane="-490979817#0_0" arrivalPos="16.19" arrivalSpeed="12.54" duration="271.00" routeLength="2811.21" waitingTime="3.00" waitingCount="1" stopTime="0.00" timeLoss="26.60" rerouteNo="0" devices="tripinfo_1" vType="DEFAULT_VEHTYPE" speedFactor="0.94" vaporized=""/>
    <tripinfo id="288" depart="144.00" departLane="22794831#1_0" departPos="5.10" departSpeed="0.00" departDelay="0.00" arrival="272.00" arrivalLane="155470483#1_0" arrivalPos="0.20" arrivalSpeed="8.71" duration="128.00" routeLength="1157.15" waitingTime="3.00" waitingCount="1" stopTime="0.00" timeLoss="21.97" rerouteNo="0" devices="tripinfo_288" vType="DEFAULT_VEHTYPE" speedFactor="1.21" vaporized=""/>
    <tripinfo id="185" depart="93.00" departLane="22794988#1_0" departPos="3.67" departSpeed="0.00" departDelay="0.50" arrival="274.00" arrivalLane="37192891#3_0" arrivalPos="32.93" arrivalSpeed="7.31" duration="181.00" routeLength="1288.35" waitingTime="0.00" waitingCount="0" stopTime="0.00" timeLoss="17.89" rerouteNo="0" devices="tripinfo_185" vType="DEFAULT_VEHTYPE" speedFactor="0.96" vaporized=""/>
    <tripinfo id="311" depart="156.00" departLane="-40492438#0_0" departPos="5.10" departSpeed="0.00" departDelay="0.50" arrival="274.00" arrivalLane="-240549302#3_0" arrivalPos="1.02" arrivalSpeed="8.77" duration="118.00" routeLength="901.30" waitingTime="2.00" waitingCount="1" stopTime="0.00" timeLoss="16.23" rerouteNo="0" devices="tripinfo_311" vType="DEFAULT_VEHTYPE" speedFactor="1.07" vaporized=""/>
    <tripinfo id="213" depart="107.00" departLane="30799973#1_0" departPos="1.26" departSpeed="0.00" departDelay="0.50" arrival="276.00" arrivalLane="-1077835594#1_0" arrivalPos="5.02" arrivalSpeed="8.22" duration="169.00" routeLength="1237.29" waitingTime="5.00" waitingCount="1" stopTime="0.00" timeLoss="23.94" rerouteNo="0" devices="tripinfo_213" vType="DEFAULT_VEHTYPE" speedFactor="1.03" vaporized=""/>
    <tripinfo id="105" depart="53.00" departLane="-8250521#2_0" departPos="0.20" departSpeed="0.00" departDelay="0.50" arrival="277.00" arrivalLane="4308723#1_0" arrivalPos="0.20" arrivalSpeed="8.56" duration="224.00" routeLength="2654.04" waitingTime="1.00" waitingCount="1" stopTime="0.00" timeLoss="31.09" rerouteNo="0" devices="tripinfo_105" vType="DEFAULT_VEHTYPE" speedFactor="1.12" vaporized=""/>
    <tripinfo id="143" depart="72.00" departLane="510722538_0" departPos="5.00" departSpeed="0.00" departDelay="0.50" arrival="278.00" arrivalLane="-180151710#0_0" arrivalPos="27.68" arrivalSpeed="9.90" duration="206.00" routeLength="2782.57" waitingTime="0.00" waitingCount="0" stopTime="0.00" timeLoss="20.01" rerouteNo="0" devices="tripinfo_143" vType="DEFAULT_VEHTYPE" speedFactor="1.23" vaporized=""/>
    <tripinfo id="230" depart="115.00" departLane="-150213180#1_0" departPos="0.20" departSpeed="0.00" departDelay="0.00" arrival="278.00" arrivalLane="1001702450#1_1" arrivalPos="0.13" arrivalSpeed="12.59" duration="163.00" routeLength="1707.64" waitingTime="7.00" waitingCount="2" stopTime="0.00" timeLoss="25.37" rerouteNo="0" devices="tripinfo_230" vType="DEFAULT_VEHTYPE" speedFactor="0.91" vaporized=""/>
    <tripinfo id="53" depart="27.00" departLane="-231948988#0_0" departPos="1.04" departSpeed="0.00" departDelay="0.50" arrival="282.00" arrivalLane="14453566#0_0" arrivalPos="94.04" arrivalSpeed="8.60" duration="255.00" routeLength="2106.08" waitingTime="4.00" waitingCount="1" stopTime="0.00" timeLoss="36.83" rerouteNo="0" devices="tripinfo_53" vType="DEFAULT_VEHTYPE" speedFactor="1.17" vaporized=""/>
    <tripinfo id="260" depart="130.00" departLane="998042136#1_0" departPos="5.10" departSpeed="0.00" departDelay="0.00" arrival="282.00" arrivalLane="13492303#1_0" arrivalPos="54.49" arrivalSpeed="5.24" duration="152.00" routeLength="1306.72" waitingTime="0.00" waitingCount="0" stopTime="0.00" timeLoss="17.82" rerouteNo="0" devices="tripinfo_260" vType="DEFAULT_VEHTYPE" speedFactor="1.11" vaporized=""/>
    <tripinfo id="9" depart="5.00" departLane="4690593#0_0" departPos="0.20" departSpeed="0.00" departDelay="0.50" arrival="284.00" arrivalLane="-1078802248#2_0" arrivalPos="18.45" arrivalSpeed="6.46" duration="279.00" routeLength="2405.33" waitingTime="24.00" waitingCount="1" stopTime="0.00" timeLoss="51.57" rerouteNo="0" devices="tripinfo_9" vType="DEFAULT_VEHTYPE" speedFactor="0.86" vaporized=""/>
    <tripinfo id="141" depart="71.00" departLane="307014272#0_0" departPos="5.10" departSpeed="0.00" departDelay="0.50" arrival="289.00" arrivalLane="-829968896#1_0" arrivalPos="0.36" arrivalSpeed="7.45" duration="218.00" routeLength="1415.77" waitingTime="9.00" waitingCount="2" stopTime="0.00" timeLoss="39.36" rerouteNo="0" devices="tripinfo_141" vType="DEFAULT_VEHTYPE" speedFactor="0.96" vaporized=""/>
    <tripinfo id="245" depart="123.00" departLane="-4730659#4_0" departPos="5.10" departSpeed="0.00" departDelay="0.50" arrival="291.00" arrivalLane="-4730929#0_0" arrivalPos="4.66" arrivalSpeed="6.96" duration="168.00" routeLength="1095.25" waitingTime="0.00" waitingCount="0" stopTime="0.00" timeLoss="21.12" rerouteNo="0" devices="tripinfo_245" vType="DEFAULT_VEHTYPE" speedFactor="0.91" vaporized=""/>
    <tripinfo id="102" depart="51.00" departLane="155472526#0_0" departPos="0.20" departSpeed="0.00" departDelay="0.00" arrival="298.00" arrivalLane="-4426075#0_0" arrivalPos="124.54" arrivalSpeed="7.93" duration="247.00" routeLength="2501.87" waitingTime="0.00" waitingCount="0" stopTime="0.00" timeLoss="27.95" rerouteNo="0" devices="tripinfo_102" vType="DEFAULT_VEHTYPE" speedFactor="1.06" vaporized=""/>
    <tripinfo id="88" depart="44.00" departLane="-220267104#0_0" departPos="0.58" departSpeed="0.00" departDelay="0.00" arrival="310.00" arrivalLane="14442433#3_0" arrivalPos="62.37" arrivalSpeed="7.42" duration="266.00" routeLength="2294.21" waitingTime="1.00" waitingCount="1" stopTime="0.00" timeLoss="36.81" rerouteNo="0" devices="tripinfo_88" vType="DEFAULT_VEHTYPE" speedFactor="0.97" vaporized=""/>
    <tripinfo id="336" depart="168.00" departLane="939752211_0" departPos="5.10" departSpeed="0.00" departDelay="0.00" arrival="310.00" arrivalLane="1083809476#2_0" arrivalPos="54.47" arrivalSpeed="8.06" duration="142.00" routeLength="1359.70" waitingTime="4.00" waitingCount="1" stopTime="0.00" timeLoss="38.50" rerouteNo="0" devices="tripinfo_336" vType="DEFAULT_VEHTYPE" speedFactor="1.01" vaporized=""/>
    <tripinfo id="305" depart="153.00" departLane="329869772#2_0" departPos="0.33" departSpeed="0.00" departDelay="0.50" arrival="313.00" arrivalLane="1085974779#0_0" arrivalPos="0.20" arrivalSpeed="7.76" duration="160.00" routeLength="1250.12" waitingTime="11.00" waitingCount="4" stopTime="0.00" timeLoss="53.53" rerouteNo="0" devices="tripinfo_305" vType="DEFAULT_VEHTYPE" speedFactor="1.05" vaporized=""/>
    <tripinfo id="115" depart="58.00" departLane="-150275988#1_0" departPos="3.16" departSpeed="0.00" departDelay="0.50" arrival="315.00" arrivalLane="-401857843#0_0" arrivalPos="1.10" arrivalSpeed="8.26" duration="257.00" routeLength="2645.04" waitingTime="6.00" waitingCount="2" stopTime="0.00" timeLoss="35.09" rerouteNo="0" devices="tripinfo_115" vType="DEFAULT_VEHTYPE" speedFactor="1.06" vaporized=""/>
    <tripinfo id="116" depart="58.00" departLane="267219369#1_0" departPos="1.03" departSpeed="0.00" departDelay="0.00" arrival="316.00" arrivalLane="31508179#1_0" arrivalPos="22.62" arrivalSpeed="7.29" duration="258.00" routeLength="1838.55" waitingTime="0.00" waitingCount="0" stopTime="0.00" timeLoss="25.45" rerouteNo="0" devices="tripinfo_116" vType="DEFAULT_VEHTYPE" speedFactor="0.96" vaporized=""/>
    <tripinfo id="16" depart="8.00" departLane="226693562#0_0" departPos="0.20" departSpeed="0.00" departDelay="0.00" arrival="320.00" arrivalLane="842329004#0_0" arrivalPos="50.17" arrivalSpeed="6.49" duration="312.00" routeLength="2146.86" waitingTime="0.00" waitingCount="0" stopTime="0.00" timeLoss="33.49" rerouteNo="0" devices="tripinfo_16" vType="DEFAULT_VEHTYPE" speedFactor="0.88" vaporized=""/>
    <tripinfo id="79" depart="40.00" departLane="-510722538_0" departPos="5.00" departSpeed="0.00" departDelay="0.50" arrival="320.00" arrivalLane="-4731013#1_1" arrivalPos="0.20" arrivalSpeed="8.04" duration="280.00" routeLength="2567.48" waitingTime="0.00" waitingCount="0" stopTime="0.00" timeLoss="26.87" rerouteNo="0" devices="tripinfo_79" vType="DEFAULT_VEHTYPE" speedFactor="0.98" vaporized=""/>
    <tripinfo id="173" depart="87.00" departLane="8382567#0_0" departPos="5.10" departSpeed="0.00" departDelay="0.50" arrival="320.00" arrivalLane="-912830770#2_0" arrivalPos="27.61" arrivalSpeed="7.65" duration="233.00" routeLength="1746.10" waitingTime="4.00" waitingCount="1" stopTime="0.00" timeLoss="31.50" rerouteNo="0" devices="tripinfo_173" vType="DEFAULT_VEHTYPE" speedFactor="1.05" vaporized=""/>
    <tripinfo id="353" depart="177.00" departLane="40493384#5_0" departPos="5.10" departSpeed="0.00" departDelay="0.50" arrival="321.00" arrivalLane="239923867#1_0" arrivalPos="0.27" arrivalSpeed="6.56" duration="144.00" routeLength="911.42" waitingTime="0.00" waitingCount="0" stopTime="0.00" timeLoss="16.15" rerouteNo="0" devices="tripinfo_353" vType="DEFAULT_VEHTYPE" speedFactor="0.86" vaporized=""/>
    <tripinfo id="64" depart="32.00" departLane="62018670#2_0" departPos="0.20" departSpeed="0.00" departDelay="0.00" arrival="322.00" arrivalLane="4906015#0_0" arrivalPos="14.39" arrivalSpeed="7.85" duration="290.00" routeLength="3533.35" waitingTime="2.00" waitingCount="2" stopTime="0.00" timeLoss="34.52" rerouteNo="0" devices="tripinfo_64" vType="DEFAULT_VEHTYPE" speedFactor="1.08" vaporized=""/>
    <tripinfo id="284" depart="142.00" departLane="30726562#0_0" departPos="1.23" departSpeed="0.00" departDelay="0.00" arrival="322.00" arrivalLane="480937385_0" arrivalPos="62.51" arrivalSpeed="13.43" duration="180.00" routeLength="1704.96" waitingTime="7.00" waitingCount="3" stopTime="0.00" timeLoss="31.13" rerouteNo="0" devices="tripinfo_284" vType="DEFAULT_VEHTYPE" speedFactor="0.98" vaporized=""/>
    <tripinfo id="42" depart="21.00" departLane="14334771#2_0" departPos="0.20" departSpeed="0.00" departDelay="0.00" arrival="323.00" arrivalLane="-4730905#2_0" arrivalPos="0.20" arrivalSpeed="5.43" duration="302.00" routeLength="2234.73" waitingTime="2.00" waitingCount="1" stopTime="0.00" timeLoss="35.60" rerouteNo="0" devices="tripinfo_42" vType="DEFAULT_VEHTYPE" speedFactor="1.03" vaporized=""/>