<?xml version="1.0" encoding="UTF-8"?>

<!-- generated on 2023-04-28 21:37:56 by Eclipse SUMO sumo Version 1.16.0
<configuration xmlns:xsi="http://www.w3.org/2001/XMLSchema-instance" xsi:noNamespaceSchemaLocation="http://sumo.dlr.de/xsd/sumoConfiguration.xsd">

    <input>
        <net-file value="bxl_center.net.xml"/>
        <route-files value="routes.rou.xml"/>
        <additional-files value="bxl_center.poly.xml"/>
    </input>

    <output>
        <lanedata-output value="lanedataXXX.xml"/>
    </output>

    <time>
        <begin value="0"/>
        <end value="3600"/>
        <step-length value="0.1"/>
    </time>

    <random_number>
        <seed value="42"/>
    </random_number>

</configuration>
-->

<meandata xmlns:xsi="http://www.w3.org/2001/XMLSchema-instance" xsi:noNamespaceSchemaLocation="http://sumo.dlr.de/xsd/meandata_file.xsd">
    <interval begin="0.00" end="3600.00" id="DEFAULT_LANEDATA">
        <edge id="-1028388888">
            <lane id="-1028388888_0" sampledSeconds="2.62" traveltime="0.02" overlapTraveltime="1.33" density="3.64" laneDensity="3.64" occupancy="0.07" waitingTime="0.00" timeLoss="1.38" speed="3.90" speedRelative="0.47" departed="1" arrived="0" entered="1" left="2" laneChangedFrom="0" laneChangedTo="0"/>
        </edge>
        <edge id="-1039716129">
            <lane id="-1039716129_0" sampledSeconds="3.86" traveltime="0.03" overlapTraveltime="1.30" density="5.36" laneDensity="5.36" occupancy="0.10" waitingTime="0.00" timeLoss="1.19" speed="3.99" speedRelative="0.48" departed="1" arrived="0" entered="2" left="3" laneChangedFrom="0" laneChangedTo="0"/>
        </edge>
        <edge id="-1047807375">
            <lane id="-1047807375_0" sampledSeconds="0.88" traveltime="0.22" overlapTraveltime="0.88" density="0.14" laneDensity="0.14" occupancy="0.02" waitingTime="0.00" timeLoss="0.01" speed="7.61" speedRelative="0.91" departed="0" arrived="0" entered="1" left="1" laneChangedFrom="0" laneChangedTo="0"/>
        </edge>
        <edge id="-1077424039#0">
            <lane id="-1077424039#0_0" sampledSeconds="10.05" traveltime="2.69" overlapTraveltime="3.35" density="0.14" laneDensity="0.14" occupancy="0.06" waitingTime="0.00" timeLoss="0.08" speed="7.56" speedRelative="0.91" departed="0" arrived="0" entered="3" left="3" laneChangedFrom="0" laneChangedTo="0"/>
        </edge>
        <edge id="-1077424039#1">
            <lane id="-1077424039#1_0" sampledSeconds="3.99" traveltime="0.67" overlapTraveltime="1.33" density="0.22" laneDensity="0.22" occupancy="0.06" waitingTime="0.00" timeLoss="0.03" speed="7.56" speedRelative="0.91" departed="0" arrived="0" entered="3" left="3" laneChangedFrom="0" laneChangedTo="0"/>
        </edge>
        <edge id="-1077424039#2">
            <lane id="-1077424039#2_0" sampledSeconds="2.40" traveltime="0.14" overlapTraveltime="0.80" density="0.64" laneDensity="0.64" occupancy="0.06" waitingTime="0.00" timeLoss="0.02" speed="7.56" speedRelative="0.91" departed="0" arrived="0" entered="3" left="3" laneChangedFrom="0" laneChangedTo="0"/>
        </edge>
        <edge id="-1078796764">
            <lane id="-1078796764_0" sampledSeconds="8.37" traveltime="7.55" overlapTraveltime="8.37" density="0.04" laneDensity="0.04" occupancy="0.02" waitingTime="0.00" timeLoss="0.21" speed="7.60" speedRelative="0.91" departed="0" arrived="0" entered="1" left="1" laneChangedFrom="0" laneChangedTo="0"/>
        </edge>
        <edge id="-1078802242#0">
            <lane id="-1078802242#0_0" sampledSeconds="0.65" traveltime="0.03" overlapTraveltime="0.65" density="0.90" laneDensity="0.90" occupancy="0.02" waitingTime="0.00" timeLoss="0.01" speed="8.04" speedRelative="0.97" departed="0" arrived="0" entered="1" left="1" laneChangedFrom="0" laneChangedTo="0"/>
        </edge>
        <edge id="-1078802242#1">
            <lane id="-1078802242#1_0" sampledSeconds="8.44" traveltime="7.73" overlapTraveltime="8.44" density="0.03" laneDensity="0.03" occupancy="0.02" waitingTime="0.00" timeLoss="0.29" speed="8.75" speedRelative="1.05" departed="0" arrived="0" entered="1" left="1" laneChangedFrom="0" laneChangedTo="0"/>
        </edge>
        <edge id="-1078802248#0">
            <lane id="-1078802248#0_0" sampledSeconds="18.24" traveltime="4.09" overlapTraveltime="4.74" density="0.18" laneDensity="0.18" occupancy="0.08" waitingTime="0.00" timeLoss="2.89" speed="6.88" speedRelative="0.83" departed="1" arrived="0" entered="3" left="4" laneChangedFrom="0" laneChangedTo="0"/>
        </edge>
        <edge id="-1078802248#1">
            <lane id="-1078802248#1_0" sampledSeconds="2.05" traveltime="0.03" overlapTraveltime="0.68" density="2.84" laneDensity="2.84" occupancy="0.05" waitingTime="0.00" timeLoss="0.17" speed="7.62" speedRelative="0.92" departed="0" arrived="0" entered="3" left="3" laneChangedFrom="0" laneChangedTo="0"/>
        </edge>
        <edge id="-1078802248#2">
            <lane id="-1078802248#2_0" sampledSeconds="9.82" traveltime="2.62" overlapTraveltime="3.27" density="0.15" laneDensity="0.15" occupancy="0.06" waitingTime="0.00" timeLoss="1.34" speed="7.16" speedRelative="0.86" departed="0" arrived="0" entered="3" left="3" laneChangedFrom="0" laneChangedTo="0"/>
        </edge>
        <edge id="-1084662162">
            <lane id="-1084662162_0" sampledSeconds="76.84" traveltime="10.36" overlapTraveltime="10.98" density="0.25" laneDensity="0.25" occupancy="0.12" waitingTime="0.00" timeLoss="0.63" speed="8.10" speedRelative="0.97" departed="0" arrived="0" entered="7" left="7" laneChangedFrom="0" laneChangedTo="0"/>
        </edge>
        <edge id="-1084662163#0">
            <lane id="-1084662163#0_0" sampledSeconds="8.26" traveltime="0.47" overlapTraveltime="1.18" density="0.66" laneDensity="0.66" occupancy="0.14" waitingTime="0.00" timeLoss="0.31" speed="7.19" speedRelative="0.86" departed="0" arrived="0" entered="7" left="7" laneChangedFrom="0" laneChangedTo="0"/>
        </edge>
        <edge id="-1084662163#1">
            <lane id="-1084662163#1_0" sampledSeconds="7.16" traveltime="0.34" overlapTraveltime="1.02" density="0.80" laneDensity="0.80" occupancy="0.13" waitingTime="0.00" timeLoss="0.55" speed="7.33" speedRelative="0.88" departed="0" arrived="0" entered="7" left="7" laneChangedFrom="0" laneChangedTo="0"/>
        </edge>
        <edge id="-1084662163#2">
            <lane id="-1084662163#2_0" sampledSeconds="7.37" traveltime="0.38" overlapTraveltime="1.05" density="0.81" laneDensity="0.81" occupancy="0.13" waitingTime="0.00" timeLoss="0.91" speed="7.15" speedRelative="0.86" departed="0" arrived="0" entered="7" left="7" laneChangedFrom="0" laneChangedTo="0"/>
        </edge>
        <edge id="-1084662163#3">
            <lane id="-1084662163#3_0" sampledSeconds="38.68" traveltime="4.80" overlapTraveltime="5.53" density="0.29" laneDensity="0.29" occupancy="0.13" waitingTime="0.20" timeLoss="2.77" speed="7.58" speedRelative="0.91" departed="0" arrived="0" entered="7" left="7" laneChangedFrom="0" laneChangedTo="0"/>
        </edge>
        <edge id="-1085788679">
            <lane id="-1085788679_0" sampledSeconds="1.42" traveltime="0.13" overlapTraveltime="0.71" density="0.36" laneDensity="0.36" occupancy="0.03" waitingTime="0.00" timeLoss="0.01" speed="8.58" speedRelative="1.03" departed="0" arrived="0" entered="2" left="2" laneChangedFrom="0" laneChangedTo="0"/>
        </edge>
        <edge id="-1085974779#0">
            <lane id="-1085974779#0_0" sampledSeconds="0.95" traveltime="0.04" overlapTraveltime="0.95" density="1.33" laneDensity="1.33" occupancy="0.03" waitingTime="0.00" timeLoss="0.01" speed="5.45" speedRelative="0.65" departed="0" arrived="0" entered="1" left="1" laneChangedFrom="0" laneChangedTo="0"/>
        </edge>
        <edge id="-1085974779#1">
            <lane id="-1085974779#1_0" sampledSeconds="8.39" traveltime="7.59" overlapTraveltime="8.39" density="0.04" laneDensity="0.04" occupancy="0.02" waitingTime="0.00" timeLoss="0.55" speed="8.24" speedRelative="0.99" departed="0" arrived="0" entered="1" left="1" laneChangedFrom="0" laneChangedTo="0"/>
        </edge>
        <edge id="-1085974779#2">
            <lane id="-1085974779#2_0" sampledSeconds="2.11" overlapTraveltime="2.66" density="0.45" laneDensity="0.45" occupancy="0.05" waitingTime="0.00" timeLoss="1.55" speed="2.37" speedRelative="0.28" departed="1" arrived="0" entered="0" left="1" laneChangedFrom="0" laneChangedTo="0"/>
        </edge>
        <edge id="-1086363237">
            <lane id="-1086363237_0" sampledSeconds="2.17" traveltime="0.03" overlapTraveltime="0.72" density="3.02" laneDensity="3.02" occupancy="0.06" waitingTime="0.00" timeLoss="0.37" speed="7.18" speedRelative="0.86" departed="0" arrived="0" entered="3" left="3" laneChangedFrom="0" laneChangedTo="0"/>
        </edge>
        <edge id="-1086585590#0">
            <lane id="-1086585590#0_0" sampledSeconds="1.34" traveltime="0.12" overlapTraveltime="0.67" density="0.32" laneDensity="0.32" occupancy="0.03" waitingTime="0.00" timeLoss="0.01" speed="9.17" speedRelative="1.10" departed="0" arrived="0" entered="2" left="2" laneChangedFrom="0" laneChangedTo="0"/>
        </edge>
        <edge id="-1086585590#1">
            <lane id="-1086585590#1_0" sampledSeconds="6.77" traveltime="2.85" overlapTraveltime="3.38" density="0.07" laneDensity="0.07" occupancy="0.03" waitingTime="0.00" timeLoss="0.04" speed="9.35" speedRelative="1.12" departed="0" arrived="0" entered="2" left="2" laneChangedFrom="0" laneChangedTo="0"/>
        </edge>
        <edge id="-1086585590#2">
            <lane id="-1086585590#2_0" sampledSeconds="1.16" traveltime="0.05" overlapTraveltime="0.58" density="0.73" laneDensity="0.73" occupancy="0.03" waitingTime="0.00" timeLoss="0.01" speed="9.36" speedRelative="1.12" departed="0" arrived="0" entered="2" left="2" laneChangedFrom="0" laneChangedTo="0"/>
        </edge>
        <edge id="-1088242861">
            <lane id="-1088242861_0" sampledSeconds="0.93" traveltime="0.04" overlapTraveltime="0.93" density="1.29" laneDensity="1.29" occupancy="0.02" waitingTime="0.00" timeLoss="0.01" speed="5.61" speedRelative="1.01" departed="0" arrived="0" entered="1" left="1" laneChangedFrom="0" laneChangedTo="0"/>
        </edge>
        <edge id="-1088242863#0">
            <lane id="-1088242863#0_0" sampledSeconds="1.80" traveltime="0.06" overlapTraveltime="0.90" density="1.51" laneDensity="1.51" occupancy="0.05" waitingTime="0.00" timeLoss="0.02" speed="5.94" speedRelative="1.07" departed="0" arrived="0" entered="2" left="2" laneChangedFrom="0" laneChangedTo="0"/>
        </edge>
        <edge id="-1088242863#1">
            <lane id="-1088242863#1_0" sampledSeconds="1.75" traveltime="0.03" overlapTraveltime="0.88" density="2.43" laneDensity="2.43" occupancy="0.05" waitingTime="0.00" timeLoss="0.02" speed="5.94" speedRelative="1.07" departed="0" arrived="0" entered="2" left="2" laneChangedFrom="0" laneChangedTo="0"/>
        </edge>
        <edge id="-1096154192#0">
            <lane id="-1096154192#0_0" sampledSeconds="3.62" traveltime="1.20" overlapTraveltime="1.81" density="0.10" laneDensity="0.10" occupancy="0.03" waitingTime="0.00" timeLoss="0.03" speed="8.18" speedRelative="0.98" departed="0" arrived="0" entered="2" left="2" laneChangedFrom="0" laneChangedTo="0"/>
        </edge>
        <edge id="-1096154192#1">
            <lane id="-1096154192#1_0" sampledSeconds="16.52" traveltime="7.65" overlapTraveltime="8.26" density="0.07" laneDensity="0.07" occupancy="0.03" waitingTime="0.00" timeLoss="0.13" speed="8.18" speedRelative="0.98" departed="0" arrived="0" entered="2" left="2" laneChangedFrom="0" laneChangedTo="0"/>
        </edge>
        <edge id="-110003530#0">
            <lane id="-110003530#0_0" sampledSeconds="4.83" traveltime="4.28" overlapTraveltime="4.83" density="0.03" laneDensity="0.03" occupancy="0.02" waitingTime="0.00" timeLoss="0.03" speed="9.08" speedRelative="1.09" departed="0" arrived="0" entered="1" left="1" laneChangedFrom="0" laneChangedTo="0"/>
        </edge>
        <edge id="-110003530#1">
            <lane id="-110003530#1_0" sampledSeconds="1.08" traveltime="0.50" overlapTraveltime="1.08" density="0.08" laneDensity="0.08" occupancy="0.02" waitingTime="0.00" timeLoss="0.13" speed="8.07" speedRelative="0.97" departed="0" arrived="0" entered="1" left="1" laneChangedFrom="0" laneChangedTo="0"/>
        </edge>
        <edge id="-1103309370">
            <lane id="-1103309370_0" sampledSeconds="2.66" traveltime="0.48" overlapTraveltime="1.09" density="0.21" laneDensity="0.21" occupancy="0.04" waitingTime="0.00" timeLoss="0.20" speed="7.90" speedRelative="0.95" departed="0" arrived="1" entered="3" left="2" laneChangedFrom="0" laneChangedTo="0"/>
        </edge>
        <edge id="-1103309371#0">
            <lane id="-1103309371#0_0" sampledSeconds="2.64" traveltime="0.03" overlapTraveltime="0.88" density="3.67" laneDensity="3.67" occupancy="0.07" waitingTime="0.00" timeLoss="0.04" speed="5.90" speedRelative="0.71" departed="0" arrived="0" entered="3" left="3" laneChangedFrom="0" laneChangedTo="0"/>
        </edge>
        <edge id="-1103309371#1">
            <lane id="-1103309371#1_0" sampledSeconds="2.60" traveltime="0.03" overlapTraveltime="0.87" density="3.61" laneDensity="3.61" occupancy="0.07" waitingTime="0.00" timeLoss="0.12" speed="5.99" speedRelative="0.72" departed="0" arrived="0" entered="3" left="3" laneChangedFrom="0" laneChangedTo="0"/>
        </edge>
        <edge id="-1103309371#2">
            <lane id="-1103309371#2_0" sampledSeconds="2.34" traveltime="0.04" overlapTraveltime="0.78" density="2.50" laneDensity="2.50" occupancy="0.06" waitingTime="0.00" timeLoss="0.50" speed="6.74" speedRelative="0.81" departed="0" arrived="0" entered="3" left="3" laneChangedFrom="0" laneChangedTo="0"/>
        </edge>
        <edge id="-1103309371#3">
            <lane id="-1103309371#3_0" sampledSeconds="13.86" traveltime="2.91" overlapTraveltime="3.62" density="0.16" laneDensity="0.16" occupancy="0.07" waitingTime="0.00" timeLoss="0.73" speed="7.97" speedRelative="0.96" departed="0" arrived="1" entered="4" left="3" laneChangedFrom="0" laneChangedTo="0"/>
        </edge>
        <edge id="-1103309371#4">
            <lane id="-1103309371#4_0" sampledSeconds="26.39" traveltime="6.00" overlapTraveltime="6.60" density="0.15" laneDensity="0.15" occupancy="0.07" waitingTime="0.00" timeLoss="0.54" speed="8.19" speedRelative="0.98" departed="0" arrived="0" entered="4" left="4" laneChangedFrom="0" laneChangedTo="0"/>
        </edge>
        <edge id="-1103309371#5">
            <lane id="-1103309371#5_0" sampledSeconds="3.06" traveltime="0.03" overlapTraveltime="0.76" density="4.25" laneDensity="4.25" occupancy="0.08" waitingTime="0.00" timeLoss="0.57" speed="6.80" speedRelative="0.82" departed="0" arrived="0" entered="4" left="4" laneChangedFrom="0" laneChangedTo="0"/>
        </edge>
        <edge id="-1107838463">
            <lane id="-1107838463_0" sampledSeconds="9.81" traveltime="9.04" overlapTraveltime="9.81" density="0.04" laneDensity="0.04" occupancy="0.02" waitingTime="0.00" timeLoss="0.11" speed="8.08" speedRelative="0.97" departed="0" arrived="0" entered="1" left="1" laneChangedFrom="0" laneChangedTo="0"/>
        </edge>
        <edge id="-1109716570#0">
            <lane id="-1109716570#0_0" sampledSeconds="1.18" traveltime="0.02" overlapTraveltime="0.39" density="1.64" laneDensity="1.64" occupancy="0.03" waitingTime="0.00" timeLoss="0.01" speed="13.24" speedRelative="0.95" departed="0" arrived="0" entered="3" left="3" laneChangedFrom="0" laneChangedTo="0"/>
        </edge>
        <edge id="-1109716570#1">
            <lane id="-1109716570#1_0" sampledSeconds="1.28" traveltime="0.05" overlapTraveltime="0.43" density="0.54" laneDensity="0.54" occupancy="0.03" waitingTime="0.00" timeLoss="0.01" speed="13.24" speedRelative="0.95" departed="0" arrived="0" entered="3" left="3" laneChangedFrom="0" laneChangedTo="0"/>
        </edge>
        <edge id="-1109716570#2">
            <lane id="-1109716570#2_0" sampledSeconds="15.55" traveltime="6.02" overlapTraveltime="6.40" density="0.05" laneDensity="0.05" occupancy="0.02" waitingTime="0.00" timeLoss="0.08" speed="13.68" speedRelative="0.98" departed="0" arrived="0" entered="1" left="3" laneChangedFrom="0" laneChangedTo="2"/>
            <lane id="-1109716570#2_1" sampledSeconds="4.87" traveltime="8.05" overlapTraveltime="8.53" density="0.02" laneDensity="0.02" occupancy="0.01" waitingTime="0.00" timeLoss="0.59" speed="10.26" speedRelative="0.74" departed="0" arrived="0" entered="2" left="0" laneChangedFrom="2" laneChangedTo="0"/>
        </edge>
        <edge id="-1109716570#3">
            <lane id="-1109716570#3_0" sampledSeconds="0.43" traveltime="0.13" overlapTraveltime="0.43" density="0.06" laneDensity="0.06" occupancy="0.01" waitingTime="0.00" timeLoss="0.00" speed="16.39" speedRelative="1.18" departed="0" arrived="0" entered="1" left="1" laneChangedFrom="0" laneChangedTo="0"/>
            <lane id="-1109716570#3_1" sampledSeconds="2.60" traveltime="0.40" overlapTraveltime="1.11" density="0.35" laneDensity="0.35" occupancy="0.05" waitingTime="0.00" timeLoss="1.28" speed="6.36" speedRelative="0.46" departed="0" arrived="1" entered="3" left="2" laneChangedFrom="0" laneChangedTo="0"/>
        </edge>
        <edge id="-1109716571#0">
            <lane id="-1109716571#0_0" sampledSeconds="2.12" traveltime="0.04" overlapTraveltime="1.06" density="2.94" laneDensity="2.94" occupancy="0.06" waitingTime="0.00" timeLoss="0.14" speed="4.91" speedRelative="0.59" departed="0" arrived="0" entered="2" left="2" laneChangedFrom="0" laneChangedTo="0"/>
        </edge>
        <edge id="-1109716571#1">
            <lane id="-1109716571#1_0" sampledSeconds="2.35" traveltime="0.32" overlapTraveltime="1.18" density="0.27" laneDensity="0.27" occupancy="0.04" waitingTime="0.00" timeLoss="0.27" speed="6.34" speedRelative="0.76" departed="0" arrived="0" entered="2" left="2" laneChangedFrom="0" laneChangedTo="0"/>
        </edge>
        <edge id="-1109909804">
            <lane id="-1109909804_0" sampledSeconds="1.56" traveltime="0.02" overlapTraveltime="0.78" density="3.60" laneDensity="3.60" occupancy="0.04" waitingTime="0.00" timeLoss="0.39" speed="6.58" speedRelative="0.79" departed="0" arrived="0" entered="2" left="2" laneChangedFrom="0" laneChangedTo="0"/>
        </edge>
        <edge id="-1109909805">
            <lane id="-1109909805_0" sampledSeconds="2.18" traveltime="0.39" overlapTraveltime="1.09" density="0.20" laneDensity="0.20" occupancy="0.04" waitingTime="0.00" timeLoss="0.11" speed="7.36" speedRelative="0.88" departed="0" arrived="0" entered="2" left="2" laneChangedFrom="0" laneChangedTo="0"/>
        </edge>
        <edge id="-1113564037#0">
            <lane id="-1113564037#0_1" sampledSeconds="3.74" traveltime="0.28" overlapTraveltime="1.87" density="5.20" laneDensity="5.20" occupancy="0.10" waitingTime="0.10" timeLoss="1.67" speed="2.78" speedRelative="0.33" departed="0" arrived="0" entered="2" left="2" laneChangedFrom="0" laneChangedTo="0"/>
        </edge>
        <edge id="-1113564037#1">
            <lane id="-1113564037#1_0" sampledSeconds="0.80" traveltime="0.03" overlapTraveltime="0.80" density="1.11" laneDensity="1.11" occupancy="0.02" waitingTime="0.00" timeLoss="0.01" speed="6.48" speedRelative="0.78" departed="0" arrived="0" entered="1" left="1" laneChangedFrom="0" laneChangedTo="0"/>
            <lane id="-1113564037#1_1" sampledSeconds="3.54" traveltime="0.03" overlapTraveltime="1.77" density="4.91" laneDensity="4.91" occupancy="0.10" waitingTime="0.10" timeLoss="2.04" speed="2.94" speedRelative="0.35" departed="0" arrived="0" entered="2" left="2" laneChangedFrom="0" laneChangedTo="0"/>
        </edge>
        <edge id="-112022783">
            <lane id="-112022783_0" sampledSeconds="11.26" traveltime="10.51" overlapTraveltime="11.26" density="0.05" laneDensity="0.05" occupancy="0.02" waitingTime="0.00" timeLoss="0.37" speed="5.87" speedRelative="1.06" departed="0" arrived="0" entered="1" left="1" laneChangedFrom="0" laneChangedTo="0"/>
        </edge>
        <edge id="-1128426908#5">
            <lane id="-1128426908#5_0" sampledSeconds="1.05" traveltime="0.98" overlapTraveltime="1.45" density="0.03" laneDensity="0.03" occupancy="0.01" waitingTime="0.00" timeLoss="0.01" speed="10.60" speedRelative="1.27" departed="0" arrived="1" entered="1" left="0" laneChangedFrom="0" laneChangedTo="0"/>
        </edge>
        <edge id="-1128426908#6">
            <lane id="-1128426908#6_0" sampledSeconds="10.74" traveltime="10.27" overlapTraveltime="10.74" density="0.03" laneDensity="0.03" occupancy="0.01" waitingTime="0.00" timeLoss="0.15" speed="10.53" speedRelative="1.26" departed="0" arrived="0" entered="1" left="1" laneChangedFrom="0" laneChangedTo="0"/>
        </edge>
        <edge id="-1128426908#7">
            <lane id="-1128426908#7_0" sampledSeconds="1.01" traveltime="0.46" overlapTraveltime="1.01" density="0.07" laneDensity="0.07" occupancy="0.02" waitingTime="0.00" timeLoss="0.18" speed="8.73" speedRelative="1.05" departed="0" arrived="0" entered="1" left="1" laneChangedFrom="0" laneChangedTo="0"/>
        </edge>
        <edge id="-1128426908#8">
            <lane id="-1128426908#8_0" sampledSeconds="0.92" traveltime="0.32" overlapTraveltime="0.92" density="0.11" laneDensity="0.11" occupancy="0.02" waitingTime="0.00" timeLoss="0.23" speed="8.00" speedRelative="0.96" departed="0" arrived="0" entered="1" left="1" laneChangedFrom="0" laneChangedTo="0"/>
        </edge>
        <edge id="-1128426908#9">
            <lane id="-1128426908#9_0" sampledSeconds="1.90" traveltime="1.25" overlapTraveltime="1.90" density="0.07" laneDensity="0.07" occupancy="0.02" waitingTime="0.00" timeLoss="0.75" speed="6.46" speedRelative="0.78" departed="0" arrived="0" entered="1" left="1" laneChangedFrom="0" laneChangedTo="0"/>
        </edge>
        <edge id="-1134398532">
            <lane id="-1134398532_0" sampledSeconds="5.97" traveltime="5.19" overlapTraveltime="5.97" density="0.05" laneDensity="0.05" occupancy="0.02" waitingTime="0.00" timeLoss="0.04" speed="6.43" speedRelative="1.16" departed="0" arrived="0" entered="1" left="1" laneChangedFrom="0" laneChangedTo="0"/>
        </edge>
        <edge id="-1145218268">
            <lane id="-1145218268_0" sampledSeconds="2.02" traveltime="0.04" overlapTraveltime="1.01" density="2.80" laneDensity="2.80" occupancy="0.05" waitingTime="0.00" timeLoss="0.03" speed="5.16" speedRelative="0.93" departed="0" arrived="0" entered="2" left="2" laneChangedFrom="0" laneChangedTo="0"/>
        </edge>
        <edge id="-1147451039#0">
            <lane id="-1147451039#0_0" sampledSeconds="26.10" traveltime="8.02" overlapTraveltime="8.93" density="0.12" laneDensity="0.12" occupancy="0.06" waitingTime="0.00" timeLoss="2.87" speed="7.29" speedRelative="0.88" departed="1" arrived="0" entered="2" left="3" laneChangedFrom="0" laneChangedTo="0"/>
        </edge>
        <edge id="-1147451039#1">
            <lane id="-1147451039#1_0" sampledSeconds="7.54" traveltime="3.21" overlapTraveltime="3.77" density="0.07" laneDensity="0.07" occupancy="0.03" waitingTime="0.00" timeLoss="0.05" speed="8.83" speedRelative="1.06" departed="0" arrived="0" entered="2" left="2" laneChangedFrom="0" laneChangedTo="0"/>
        </edge>
        <edge id="-11479893#0">
            <lane id="-11479893#0_0" sampledSeconds="9.54" traveltime="8.97" overlapTraveltime="9.54" density="0.03" laneDensity="0.03" occupancy="0.02" waitingTime="0.00" timeLoss="0.07" speed="8.72" speedRelative="1.05" departed="0" arrived="0" entered="1" left="1" laneChangedFrom="0" laneChangedTo="0"/>
        </edge>
        <edge id="-11479893#1">
            <lane id="-11479893#1_0" sampledSeconds="0.60" traveltime="0.02" overlapTraveltime="0.60" density="0.83" laneDensity="0.83" occupancy="0.02" waitingTime="0.00" timeLoss="0.00" speed="8.72" speedRelative="1.05" departed="0" arrived="0" entered="1" left="1" laneChangedFrom="0" laneChangedTo="0"/>
        </edge>
        <edge id="-11479893#2">
            <lane id="-11479893#2_0" sampledSeconds="4.79" traveltime="4.21" overlapTraveltime="4.79" density="0.04" laneDensity="0.04" occupancy="0.02" waitingTime="0.00" timeLoss="0.03" speed="8.72" speedRelative="1.05" departed="0" arrived="0" entered="1" left="1" laneChangedFrom="0" laneChangedTo="0"/>
        </edge>
        <edge id="-11479893#3">
            <lane id="-11479893#3_0" sampledSeconds="0.60" traveltime="0.02" overlapTraveltime="0.60" density="0.83" laneDensity="0.83" occupancy="0.02" waitingTime="0.00" timeLoss="0.00" speed="8.73" speedRelative="1.05" departed="0" arrived="0" entered="1" left="1" laneChangedFrom="0" laneChangedTo="0"/>
        </edge>
        <edge id="-11479893#4">
            <lane id="-11479893#4_0" sampledSeconds="12.72" traveltime="12.14" overlapTraveltime="12.72" density="0.03" laneDensity="0.03" occupancy="0.02" waitingTime="0.00" timeLoss="0.09" speed="8.72" speedRelative="1.05" departed="0" arrived="0" entered="1" left="1" laneChangedFrom="0" laneChangedTo="0"/>
        </edge>
        <edge id="-11479893#5">
            <lane id="-11479893#5_0" sampledSeconds="7.24" traveltime="6.67" overlapTraveltime="7.24" density="0.04" laneDensity="0.04" occupancy="0.02" waitingTime="0.00" timeLoss="0.24" speed="8.49" speedRelative="1.02" departed="0" arrived="0" entered="1" left="1" laneChangedFrom="0" laneChangedTo="0"/>
        </edge>
        <edge id="-11479928#0">
            <lane id="-11479928#0_0" sampledSeconds="6.05" traveltime="5.26" overlapTraveltime="6.05" density="0.04" laneDensity="0.04" occupancy="0.02" waitingTime="0.00" timeLoss="0.11" speed="8.30" speedRelative="1.00" departed="0" arrived="0" entered="1" left="1" laneChangedFrom="0" laneChangedTo="0"/>
        </edge>
        <edge id="-1152618902#0">
            <lane id="-1152618902#0_0" sampledSeconds="5.61" traveltime="1.90" overlapTraveltime="2.81" density="0.14" laneDensity="0.14" occupancy="0.05" waitingTime="0.00" timeLoss="1.53" speed="5.84" speedRelative="0.70" departed="0" arrived="0" entered="2" left="2" laneChangedFrom="0" laneChangedTo="0"/>
        </edge>
        <edge id="-1152618902#1">
            <lane id="-1152618902#1_0" sampledSeconds="10.59" traveltime="4.65" overlapTraveltime="5.29" density="0.08" laneDensity="0.08" occupancy="0.04" waitingTime="0.00" timeLoss="0.31" speed="7.78" speedRelative="0.93" departed="0" arrived="0" entered="2" left="2" laneChangedFrom="0" laneChangedTo="0"/>
        </edge>
        <edge id="-1156329248">
            <lane id="-1156329248_0" sampledSeconds="2.60" traveltime="0.03" overlapTraveltime="0.65" density="3.61" laneDensity="3.61" occupancy="0.07" waitingTime="0.00" timeLoss="0.08" speed="7.99" speedRelative="0.96" departed="0" arrived="0" entered="4" left="4" laneChangedFrom="0" laneChangedTo="0"/>
        </edge>
        <edge id="-118339468#0">
            <lane id="-118339468#0_0" sampledSeconds="6.25" traveltime="5.64" overlapTraveltime="6.25" density="0.04" laneDensity="0.04" occupancy="0.02" waitingTime="0.00" timeLoss="0.17" speed="8.01" speedRelative="0.96" departed="0" arrived="0" entered="1" left="1" laneChangedFrom="0" laneChangedTo="0"/>
        </edge>
        <edge id="-118339468#1">
            <lane id="-118339468#1_0" sampledSeconds="6.34" traveltime="5.73" overlapTraveltime="6.34" density="0.04" laneDensity="0.04" occupancy="0.02" waitingTime="0.00" timeLoss="0.05" speed="8.16" speedRelative="0.98" departed="0" arrived="0" entered="1" left="1" laneChangedFrom="0" laneChangedTo="0"/>
        </edge>
        <edge id="-118339506#0">
            <lane id="-118339506#0_0" sampledSeconds="1.82" traveltime="0.13" overlapTraveltime="0.91" density="0.55" laneDensity="0.55" occupancy="0.04" waitingTime="0.00" timeLoss="0.07" speed="6.50" speedRelative="0.78" departed="0" arrived="0" entered="2" left="2" laneChangedFrom="0" laneChangedTo="0"/>
        </edge>
        <edge id="-118339506#1">
            <lane id="-118339506#1_0" sampledSeconds="13.33" traveltime="6.06" overlapTraveltime="6.67" density="0.07" laneDensity="0.07" occupancy="0.03" waitingTime="0.00" timeLoss="0.14" speed="8.51" speedRelative="1.02" departed="0" arrived="0" entered="2" left="2" laneChangedFrom="0" laneChangedTo="0"/>
        </edge>
        <edge id="-118339506#2">
            <lane id="-118339506#2_0" sampledSeconds="3.51" traveltime="1.17" overlapTraveltime="1.76" density="0.10" laneDensity="0.10" occupancy="0.03" waitingTime="0.00" timeLoss="0.02" speed="8.54" speedRelative="1.02" departed="0" arrived="0" entered="2" left="2" laneChangedFrom="0" laneChangedTo="0"/>
        </edge>
        <edge id="-12074750">
            <lane id="-12074750_0" sampledSeconds="1.95" traveltime="0.03" overlapTraveltime="0.65" density="2.71" laneDensity="2.71" occupancy="0.05" waitingTime="0.00" timeLoss="0.19" speed="7.99" speedRelative="0.96" departed="0" arrived="0" entered="3" left="3" laneChangedFrom="0" laneChangedTo="0"/>
        </edge>
        <edge id="-12350565#0">
            <lane id="-12350565#0_0" sampledSeconds="20.16" traveltime="0.28" overlapTraveltime="1.34" density="28.00" laneDensity="28.00" occupancy="0.49" waitingTime="5.50" timeLoss="9.73" speed="3.87" speedRelative="0.46" departed="0" arrived="0" entered="15" left="15" laneChangedFrom="0" laneChangedTo="0"/>
        </edge>
        <edge id="-12350565#1">
            <lane id="-12350565#1_0" sampledSeconds="28.02" traveltime="0.56" overlapTraveltime="1.87" density="2.07" laneDensity="2.07" occupancy="0.36" waitingTime="5.50" timeLoss="12.02" speed="4.69" speedRelative="0.56" departed="0" arrived="0" entered="15" left="15" laneChangedFrom="0" laneChangedTo="0"/>
        </edge>
        <edge id="-12350565#10">